<?xml version="1.0" encoding="UTF-8"?>

<!-- generated on 2025-12-03 15:44:30 by Eclipse SUMO GUI Version 1.24.0
<sumoConfiguration xmlns:xsi="http://www.w3.org/2001/XMLSchema-instance" xsi:noNamespaceSchemaLocation="http://sumo.dlr.de/xsd/sumoConfiguration.xsd">

    <input>
        <net-file value="C:\Users\laebli\OneDrive - ETH Zurich\Microscopic\SUMO\251128_SUMO_V1_morning\Bellevue_V1.net.xml"/>
        <route-files value="C:\Users\laebli\OneDrive - ETH Zurich\Microscopic\SUMO\251128_SUMO_V1_morning\demand_morning.xml"/>
        <additional-files value="C:\Users\laebli\OneDrive - ETH Zurich\Microscopic\SUMO\251128_SUMO_V1_morning\detectors.add.xml"/>
    </input>

    <output>
        <lanedata-output value="C:\Users\laebli\OneDrive - ETH Zurich\Microscopic\SUMO\251128_SUMO_V1_morning\Output_LaneData_V1_morning.xml"/>
    </output>

</sumoConfiguration>
-->

<meandata xmlns:xsi="http://www.w3.org/2001/XMLSchema-instance" xsi:noNamespaceSchemaLocation="http://sumo.dlr.de/xsd/meandata_file.xsd">
    <interval begin="0.00" end="16517.00" id="DEFAULT_LANEDATA">
        <edge id="-10594647#1">
            <lane id="-10594647#1_0" sampledSeconds="5534.59" traveltime="17.55" overlapTraveltime="18.52" density="11.02" laneDensity="11.02" occupancy="5.29" waitingTime="3467.00" timeLoss="4740.94" speed="1.91" speedRelative="0.14" departed="0" arrived="0" entered="299" left="298" laneChangedFrom="0" laneChangedTo="0"/>
        </edge>
        <edge id="-10750844#2">
            <lane id="-10750844#2_0" sampledSeconds="1652.02" traveltime="3.43" overlapTraveltime="3.86" density="3.48" laneDensity="3.48" occupancy="1.56" waitingTime="462.00" timeLoss="600.72" speed="8.75" speedRelative="0.63" departed="0" arrived="0" entered="428" left="428" laneChangedFrom="0" laneChangedTo="0"/>
        </edge>
        <edge id="-1163569502#1">
            <lane id="-1163569502#1_0" sampledSeconds="1015.40" traveltime="6.59" overlapTraveltime="7.25" density="1.28" laneDensity="1.28" occupancy="0.57" waitingTime="0.00" timeLoss="113.31" speed="7.31" speedRelative="0.88" departed="0" arrived="0" entered="140" left="140" laneChangedFrom="0" laneChangedTo="0"/>
        </edge>
        <edge id="-11667106#10">
            <lane id="-11667106#10_0" sampledSeconds="4645.97" traveltime="5.88" overlapTraveltime="6.58" density="6.68" laneDensity="6.68" occupancy="2.98" waitingTime="0.00" timeLoss="619.72" speed="7.16" speedRelative="0.86" departed="0" arrived="0" entered="706" left="706" laneChangedFrom="0" laneChangedTo="0"/>
        </edge>
        <edge id="-11667106#2">
            <lane id="-11667106#2_0" sampledSeconds="7141.06" traveltime="27.00" overlapTraveltime="27.89" density="4.61" laneDensity="4.61" occupancy="2.24" waitingTime="2877.00" timeLoss="4154.89" speed="3.54" speedRelative="0.43" departed="0" arrived="0" entered="256" left="256" laneChangedFrom="0" laneChangedTo="0"/>
        </edge>
        <edge id="-11667106#5">
            <lane id="-11667106#5_0" sampledSeconds="6292.41" traveltime="8.15" overlapTraveltime="8.91" density="7.07" laneDensity="7.07" occupancy="3.24" waitingTime="276.00" timeLoss="1191.15" speed="6.61" speedRelative="0.79" departed="0" arrived="0" entered="706" left="706" laneChangedFrom="0" laneChangedTo="0"/>
        </edge>
        <edge id="-11667106#8">
            <lane id="-11667106#8_0" sampledSeconds="4628.95" traveltime="5.86" overlapTraveltime="6.56" density="6.72" laneDensity="6.72" occupancy="3.00" waitingTime="0.00" timeLoss="636.87" speed="7.13" speedRelative="0.86" departed="0" arrived="0" entered="706" left="706" laneChangedFrom="0" laneChangedTo="0"/>
        </edge>
        <edge id="-1168931395#1">
            <lane id="-1168931395#1_0" sampledSeconds="958.98" traveltime="1.89" overlapTraveltime="2.27" density="2.49" laneDensity="2.49" occupancy="1.02" waitingTime="0.00" timeLoss="87.58" speed="12.47" speedRelative="0.90" departed="0" arrived="0" entered="422" left="422" laneChangedFrom="0" laneChangedTo="0"/>
            <lane id="-1168931395#1_1" sampledSeconds="1431.08" traveltime="2.16" overlapTraveltime="2.56" density="3.71" laneDensity="3.71" occupancy="1.51" waitingTime="0.00" timeLoss="288.25" speed="11.05" speedRelative="0.80" departed="0" arrived="0" entered="558" left="558" laneChangedFrom="0" laneChangedTo="0"/>
        </edge>
        <edge id="-1168931399#2">
            <lane id="-1168931399#2_0" sampledSeconds="2906.21" traveltime="19.59" overlapTraveltime="20.76" density="10.45" laneDensity="10.45" occupancy="4.91" waitingTime="2140.00" timeLoss="2564.64" speed="1.05" speedRelative="0.13" departed="0" arrived="0" entered="140" left="140" laneChangedFrom="0" laneChangedTo="0"/>
        </edge>
        <edge id="-1168931401#1">
            <lane id="-1168931401#1_0" sampledSeconds="1143.75" traveltime="2.26" overlapTraveltime="2.67" density="3.06" laneDensity="3.06" occupancy="1.24" waitingTime="0.00" timeLoss="284.22" speed="10.33" speedRelative="0.74" departed="0" arrived="0" entered="428" left="428" laneChangedFrom="0" laneChangedTo="0"/>
        </edge>
        <edge id="-125860019#2">
            <lane id="-125860019#2_0" sampledSeconds="3406.99" traveltime="20.71" overlapTraveltime="22.17" density="14.17" laneDensity="14.17" occupancy="6.72" waitingTime="2411.00" timeLoss="2922.71" speed="0.88" speedRelative="0.16" departed="0" arrived="0" entered="154" left="153" laneChangedFrom="0" laneChangedTo="0"/>
        </edge>
        <edge id="-125860019#4">
            <lane id="-125860019#4_0" sampledSeconds="778.85" traveltime="3.99" overlapTraveltime="5.02" density="3.05" laneDensity="3.05" occupancy="1.17" waitingTime="83.00" timeLoss="204.38" speed="4.07" speedRelative="0.73" departed="0" arrived="0" entered="155" left="155" laneChangedFrom="0" laneChangedTo="0"/>
        </edge>
        <edge id="-14389891#0">
            <lane id="-14389891#0_0" sampledSeconds="1490.56" traveltime="9.97" overlapTraveltime="10.65" density="1.20" laneDensity="1.20" occupancy="0.56" waitingTime="0.00" timeLoss="130.88" speed="7.51" speedRelative="0.90" departed="0" arrived="0" entered="140" left="140" laneChangedFrom="0" laneChangedTo="0"/>
        </edge>
        <edge id="-14389891#3">
            <lane id="-14389891#3_0" sampledSeconds="1131.04" traveltime="7.41" overlapTraveltime="8.08" density="1.22" laneDensity="1.22" occupancy="0.56" waitingTime="0.00" timeLoss="95.29" speed="7.54" speedRelative="0.91" departed="0" arrived="0" entered="140" left="140" laneChangedFrom="0" laneChangedTo="0"/>
        </edge>
        <edge id="-14389891#4">
            <lane id="-14389891#4_0" sampledSeconds="241.41" traveltime="1.06" overlapTraveltime="1.72" density="1.82" laneDensity="1.82" occupancy="0.56" waitingTime="0.00" timeLoss="20.18" speed="7.54" speedRelative="0.91" departed="0" arrived="0" entered="140" left="140" laneChangedFrom="0" laneChangedTo="0"/>
        </edge>
        <edge id="-14389891#5">
            <lane id="-14389891#5_0" sampledSeconds="283.05" traveltime="1.36" overlapTraveltime="2.02" density="1.67" laneDensity="1.67" occupancy="0.56" waitingTime="0.00" timeLoss="23.73" speed="7.54" speedRelative="0.91" departed="0" arrived="0" entered="140" left="140" laneChangedFrom="0" laneChangedTo="0"/>
        </edge>
        <edge id="-15677258#0">
            <lane id="-15677258#0_0" sampledSeconds="1027.20" traveltime="2.31" overlapTraveltime="3.39" density="7.00" laneDensity="7.00" occupancy="2.36" waitingTime="117.00" timeLoss="418.18" speed="4.09" speedRelative="0.49" departed="0" arrived="0" entered="303" left="303" laneChangedFrom="0" laneChangedTo="0"/>
        </edge>
        <edge id="-15677258#1">
            <lane id="-15677258#1_0" sampledSeconds="832.51" traveltime="1.92" overlapTraveltime="2.75" density="6.36" laneDensity="6.36" occupancy="1.87" waitingTime="15.00" timeLoss="362.44" speed="4.71" speedRelative="0.56" departed="0" arrived="0" entered="303" left="303" laneChangedFrom="0" laneChangedTo="0"/>
        </edge>
        <edge id="-15677510#0">
            <lane id="-15677510#0_0" sampledSeconds="10602.08" traveltime="34.11" overlapTraveltime="35.34" density="30.45" laneDensity="30.45" occupancy="14.78" waitingTime="8045.00" timeLoss="9894.52" speed="0.74" speedRelative="0.05" departed="0" arrived="0" entered="300" left="300" laneChangedFrom="0" laneChangedTo="0"/>
        </edge>
        <edge id="-15677510#1">
            <lane id="-15677510#1_0" sampledSeconds="8404.48" traveltime="27.10" overlapTraveltime="28.01" density="16.13" laneDensity="16.13" occupancy="7.37" waitingTime="5824.00" timeLoss="7606.01" speed="1.30" speedRelative="0.09" departed="0" arrived="0" entered="300" left="300" laneChangedFrom="0" laneChangedTo="0"/>
        </edge>
        <edge id="-15677510#2">
            <lane id="-15677510#2_0" sampledSeconds="238.58" traveltime="0.08" overlapTraveltime="0.80" density="22.57" laneDensity="22.57" occupancy="1.26" waitingTime="0.00" timeLoss="115.33" speed="7.09" speedRelative="0.51" departed="0" arrived="0" entered="300" left="300" laneChangedFrom="0" laneChangedTo="0"/>
        </edge>
        <edge id="-15677510#3">
            <lane id="-15677510#3_0" sampledSeconds="2752.12" traveltime="8.59" overlapTraveltime="9.20" density="1.75" laneDensity="1.75" occupancy="0.82" waitingTime="41.00" timeLoss="511.74" speed="10.86" speedRelative="0.78" departed="0" arrived="0" entered="299" left="299" laneChangedFrom="0" laneChangedTo="0"/>
        </edge>
        <edge id="-172213041#1">
            <lane id="-172213041#1_0" sampledSeconds="4126.74" traveltime="11.23" overlapTraveltime="11.62" density="1.98" laneDensity="1.98" occupancy="0.96" waitingTime="10.00" timeLoss="757.26" speed="11.29" speedRelative="0.81" departed="0" arrived="0" entered="257" left="417" laneChangedFrom="36" laneChangedTo="196"/>
            <lane id="-172213041#1_1" sampledSeconds="82056.96" traveltime="30.46" overlapTraveltime="32.18" density="39.36" laneDensity="39.36" occupancy="18.91" waitingTime="31222.00" timeLoss="57593.98" speed="4.08" speedRelative="0.29" departed="0" arrived="0" entered="2648" left="2488" laneChangedFrom="196" laneChangedTo="36"/>
        </edge>
        <edge id="-172213042">
            <lane id="-172213042_0" sampledSeconds="1062.49" traveltime="3.61" overlapTraveltime="3.99" density="1.36" laneDensity="1.36" occupancy="0.61" waitingTime="0.00" timeLoss="56.80" speed="13.11" speedRelative="0.94" departed="0" arrived="0" entered="328" left="259" laneChangedFrom="69" laneChangedTo="0"/>
            <lane id="-172213042_1" sampledSeconds="10089.24" traveltime="5.89" overlapTraveltime="7.06" density="12.92" laneDensity="12.92" occupancy="5.90" waitingTime="2426.00" timeLoss="4668.13" speed="7.41" speedRelative="0.53" departed="0" arrived="0" entered="1457" left="1406" laneChangedFrom="120" laneChangedTo="69"/>
            <lane id="-172213042_2" sampledSeconds="5230.24" traveltime="7.10" overlapTraveltime="8.75" density="6.70" laneDensity="6.70" occupancy="3.09" waitingTime="2001.00" timeLoss="2953.89" speed="5.97" speedRelative="0.43" departed="0" arrived="0" entered="508" left="628" laneChangedFrom="0" laneChangedTo="120"/>
        </edge>
        <edge id="-172222117#1">
            <lane id="-172222117#1_0" sampledSeconds="1964.02" traveltime="3.33" overlapTraveltime="3.71" density="2.88" laneDensity="2.88" occupancy="1.27" waitingTime="0.00" timeLoss="189.93" speed="12.49" speedRelative="0.90" departed="0" arrived="0" entered="536" left="529" laneChangedFrom="7" laneChangedTo="0"/>
            <lane id="-172222117#1_1" sampledSeconds="11684.73" traveltime="3.45" overlapTraveltime="3.86" density="17.13" laneDensity="17.13" occupancy="7.61" waitingTime="0.00" timeLoss="1480.85" speed="12.00" speedRelative="0.86" departed="0" arrived="0" entered="3022" left="3029" laneChangedFrom="0" laneChangedTo="7"/>
        </edge>
        <edge id="-172222117#1.57">
            <lane id="-172222117#1.57_0" sampledSeconds="1592.98" traveltime="2.68" overlapTraveltime="3.06" density="2.74" laneDensity="2.74" occupancy="1.20" waitingTime="0.00" timeLoss="77.80" speed="13.13" speedRelative="0.95" departed="0" arrived="0" entered="529" left="516" laneChangedFrom="13" laneChangedTo="0"/>
            <lane id="-172222117#1.57_1" sampledSeconds="25.15" traveltime="2.52" overlapTraveltime="2.88" density="0.04" laneDensity="0.04" occupancy="0.02" waitingTime="0.00" timeLoss="1.38" speed="13.98" speedRelative="1.01" departed="0" arrived="0" entered="0" left="13" laneChangedFrom="0" laneChangedTo="13"/>
        </edge>
        <edge id="-188708009">
            <lane id="-188708009_0" sampledSeconds="10157.51" traveltime="22.09" overlapTraveltime="22.77" density="7.15" laneDensity="7.15" occupancy="3.48" waitingTime="5844.00" timeLoss="7158.95" speed="4.00" speedRelative="0.29" departed="0" arrived="0" entered="421" left="507" laneChangedFrom="145" laneChangedTo="231"/>
            <lane id="-188708009_1" sampledSeconds="11061.13" traveltime="19.81" overlapTraveltime="20.57" density="7.78" laneDensity="7.78" occupancy="3.80" waitingTime="5551.00" timeLoss="7561.33" speed="4.43" speedRelative="0.32" departed="0" arrived="0" entered="563" left="477" laneChangedFrom="231" laneChangedTo="145"/>
        </edge>
        <edge id="-188708010">
            <lane id="-188708010_0" sampledSeconds="1244.95" traveltime="2.58" overlapTraveltime="2.96" density="2.24" laneDensity="2.24" occupancy="0.97" waitingTime="0.00" timeLoss="58.88" speed="13.06" speedRelative="0.94" departed="0" arrived="0" entered="421" left="422" laneChangedFrom="4" laneChangedTo="5"/>
            <lane id="-188708010_1" sampledSeconds="1700.98" traveltime="2.65" overlapTraveltime="3.04" density="3.06" laneDensity="3.06" occupancy="1.33" waitingTime="0.00" timeLoss="136.49" speed="12.73" speedRelative="0.92" departed="0" arrived="0" entered="559" left="558" laneChangedFrom="5" laneChangedTo="4"/>
        </edge>
        <edge id="-27361348#1">
            <lane id="-27361348#1_0" sampledSeconds="1882.43" traveltime="9.91" overlapTraveltime="10.41" density="0.95" laneDensity="0.95" occupancy="0.45" waitingTime="0.00" timeLoss="192.47" speed="12.06" speedRelative="0.87" departed="0" arrived="0" entered="146" left="183" laneChangedFrom="0" laneChangedTo="37"/>
            <lane id="-27361348#1_1" sampledSeconds="183984.67" traveltime="531.17" overlapTraveltime="567.63" density="92.41" laneDensity="92.41" occupancy="45.80" waitingTime="152527.00" timeLoss="181023.21" speed="0.22" speedRelative="0.02" departed="0" arrived="0" entered="344" left="325" laneChangedFrom="53" laneChangedTo="47"/>
            <lane id="-27361348#1_2" sampledSeconds="182531.39" traveltime="512.82" overlapTraveltime="549.16" density="91.68" laneDensity="91.68" occupancy="45.47" waitingTime="150708.00" timeLoss="179501.36" speed="0.23" speedRelative="0.02" departed="0" arrived="0" entered="359" left="315" laneChangedFrom="47" laneChangedTo="16"/>
        </edge>
        <edge id="-28674458#0">
            <lane id="-28674458#0_0" sampledSeconds="924.52" traveltime="17.10" overlapTraveltime="30.82" density="23.42" laneDensity="23.42" occupancy="5.32" waitingTime="807.00" timeLoss="885.33" speed="0.24" speedRelative="0.02" departed="0" arrived="0" entered="30" left="30" laneChangedFrom="0" laneChangedTo="0"/>
        </edge>
        <edge id="-28674458#1">
            <lane id="-28674458#1_0" sampledSeconds="2354.65" traveltime="48.65" overlapTraveltime="78.49" density="2.62" laneDensity="2.62" occupancy="0.99" waitingTime="1954.00" timeLoss="2208.53" speed="0.76" speedRelative="0.05" departed="0" arrived="0" entered="30" left="30" laneChangedFrom="0" laneChangedTo="0"/>
        </edge>
        <edge id="-28674458#2">
            <lane id="-28674458#2_0" sampledSeconds="41.38" traveltime="0.92" overlapTraveltime="1.38" density="0.29" laneDensity="0.29" occupancy="0.09" waitingTime="0.00" timeLoss="12.18" speed="9.94" speedRelative="0.72" departed="0" arrived="0" entered="30" left="30" laneChangedFrom="0" laneChangedTo="0"/>
        </edge>
        <edge id="-313458176#4">
            <lane id="-313458176#4_0" sampledSeconds="339.55" traveltime="2.98" overlapTraveltime="3.36" density="0.54" laneDensity="0.54" occupancy="0.24" waitingTime="0.00" timeLoss="24.89" speed="12.72" speedRelative="0.92" departed="0" arrived="0" entered="101" left="101" laneChangedFrom="0" laneChangedTo="0"/>
            <lane id="-313458176#4_1" sampledSeconds="5862.80" traveltime="3.18" overlapTraveltime="3.64" density="9.40" laneDensity="9.40" occupancy="4.13" waitingTime="0.00" timeLoss="865.93" speed="11.75" speedRelative="0.85" departed="0" arrived="0" entered="1610" left="1610" laneChangedFrom="0" laneChangedTo="0"/>
        </edge>
        <edge id="-313458176#4.40">
            <lane id="-313458176#4.40_0" sampledSeconds="3021.56" traveltime="30.25" overlapTraveltime="31.17" density="1.07" laneDensity="1.07" occupancy="0.53" waitingTime="1460.00" timeLoss="1783.64" speed="5.62" speedRelative="0.40" departed="0" arrived="0" entered="101" left="84" laneChangedFrom="17" laneChangedTo="0"/>
            <lane id="-313458176#4.40_1" sampledSeconds="574.01" traveltime="149.73" overlapTraveltime="141.34" density="0.20" laneDensity="0.20" occupancy="0.10" waitingTime="424.00" timeLoss="522.37" speed="1.24" speedRelative="0.09" departed="0" arrived="0" entered="0" left="17" laneChangedFrom="0" laneChangedTo="17"/>
        </edge>
        <edge id="-35162767#0">
            <lane id="-35162767#0_0" sampledSeconds="3080.38" traveltime="2.76" overlapTraveltime="3.17" density="5.45" laneDensity="5.45" occupancy="2.38" waitingTime="0.00" timeLoss="317.39" speed="12.39" speedRelative="0.89" departed="0" arrived="0" entered="973" left="973" laneChangedFrom="0" laneChangedTo="0"/>
        </edge>
        <edge id="-35162767#1">
            <lane id="-35162767#1_0" sampledSeconds="6352.31" traveltime="6.13" overlapTraveltime="6.53" density="5.02" laneDensity="5.02" occupancy="2.36" waitingTime="0.00" timeLoss="599.43" speed="12.51" speedRelative="0.90" departed="0" arrived="0" entered="973" left="973" laneChangedFrom="0" laneChangedTo="0"/>
        </edge>
        <edge id="-35162769#0">
            <lane id="-35162769#0_0" sampledSeconds="5207.84" traveltime="4.91" overlapTraveltime="5.35" density="5.59" laneDensity="5.59" occupancy="2.58" waitingTime="185.00" timeLoss="877.68" speed="11.48" speedRelative="0.83" departed="0" arrived="0" entered="973" left="973" laneChangedFrom="0" laneChangedTo="0"/>
        </edge>
        <edge id="-35162769#1">
            <lane id="-35162769#1_0" sampledSeconds="2201.01" traveltime="1.87" overlapTraveltime="2.26" density="5.62" laneDensity="5.62" occupancy="2.32" waitingTime="0.00" timeLoss="178.62" speed="12.69" speedRelative="0.91" departed="0" arrived="0" entered="973" left="973" laneChangedFrom="0" laneChangedTo="0"/>
        </edge>
        <edge id="-35162769#2">
            <lane id="-35162769#2_0" sampledSeconds="2466.26" traveltime="2.14" overlapTraveltime="2.53" density="5.48" laneDensity="5.48" occupancy="2.31" waitingTime="0.00" timeLoss="193.71" speed="12.72" speedRelative="0.92" departed="0" arrived="0" entered="973" left="973" laneChangedFrom="0" laneChangedTo="0"/>
        </edge>
        <edge id="-4398888#0">
            <lane id="-4398888#0_0" sampledSeconds="5126.86" traveltime="10.46" overlapTraveltime="14.82" density="4.20" laneDensity="4.20" occupancy="1.61" waitingTime="2437.00" timeLoss="3105.12" speed="5.33" speedRelative="0.38" departed="0" arrived="0" entered="453" left="317" laneChangedFrom="243" laneChangedTo="107"/>
            <lane id="-4398888#0_1" sampledSeconds="9040.52" traveltime="9.90" overlapTraveltime="13.17" density="7.40" laneDensity="7.40" occupancy="2.98" waitingTime="3767.00" timeLoss="5173.75" speed="5.99" speedRelative="0.43" departed="0" arrived="0" entered="580" left="716" laneChangedFrom="107" laneChangedTo="243"/>
        </edge>
        <edge id="-4398888#0.74">
            <lane id="-4398888#0.74_0" sampledSeconds="7544.24" traveltime="21.33" overlapTraveltime="21.75" density="22.65" laneDensity="22.65" occupancy="10.38" waitingTime="5874.00" timeLoss="6896.00" speed="1.16" speedRelative="0.08" departed="0" arrived="0" entered="315" left="382" laneChangedFrom="24" laneChangedTo="91"/>
            <lane id="-4398888#0.74_1" sampledSeconds="10208.45" traveltime="13.94" overlapTraveltime="14.88" density="30.64" laneDensity="30.64" occupancy="13.81" waitingTime="7408.00" timeLoss="8937.60" speed="1.69" speedRelative="0.12" departed="0" arrived="0" entered="718" left="651" laneChangedFrom="91" laneChangedTo="24"/>
        </edge>
        <edge id="-4398888#2">
            <lane id="-4398888#2_0" sampledSeconds="842.84" traveltime="1.45" overlapTraveltime="1.86" density="3.01" laneDensity="3.01" occupancy="1.16" waitingTime="0.00" timeLoss="105.54" speed="11.78" speedRelative="0.85" departed="0" arrived="0" entered="450" left="453" laneChangedFrom="15" laneChangedTo="18"/>
            <lane id="-4398888#2_1" sampledSeconds="1035.47" traveltime="1.39" overlapTraveltime="1.79" density="3.70" laneDensity="3.70" occupancy="1.42" waitingTime="0.00" timeLoss="138.33" speed="12.26" speedRelative="0.88" departed="0" arrived="0" entered="583" left="580" laneChangedFrom="18" laneChangedTo="15"/>
        </edge>
        <edge id="-46656282#2">
            <lane id="-46656282#2_0" sampledSeconds="22993.10" traveltime="15.91" overlapTraveltime="16.03" density="34.94" laneDensity="34.94" occupancy="16.86" waitingTime="11233.00" timeLoss="17693.98" speed="2.80" speedRelative="0.20" departed="0" arrived="0" entered="0" left="2139" laneChangedFrom="0" laneChangedTo="2142"/>
            <lane id="-46656282#2_1" sampledSeconds="10005.41" traveltime="12.56" overlapTraveltime="14.13" density="15.20" laneDensity="15.20" occupancy="7.25" waitingTime="4883.00" timeLoss="7733.35" speed="3.17" speedRelative="0.23" departed="0" arrived="0" entered="2144" left="0" laneChangedFrom="2142" laneChangedTo="0"/>
        </edge>
        <edge id="-4727535">
            <lane id="-4727535_0" sampledSeconds="214.88" traveltime="0.03" overlapTraveltime="0.83" density="108.41" laneDensity="108.41" occupancy="1.27" waitingTime="0.00" timeLoss="90.11" speed="6.15" speedRelative="0.44" departed="0" arrived="0" entered="258" left="258" laneChangedFrom="0" laneChangedTo="0"/>
            <lane id="-4727535_1" sampledSeconds="919.80" traveltime="0.02" overlapTraveltime="0.65" density="133.33" laneDensity="133.33" occupancy="5.43" waitingTime="0.00" timeLoss="299.91" speed="7.83" speedRelative="0.56" departed="0" arrived="0" entered="1407" left="1407" laneChangedFrom="0" laneChangedTo="0"/>
            <lane id="-4727535_2" sampledSeconds="539.15" traveltime="0.03" overlapTraveltime="0.86" density="133.33" laneDensity="133.33" occupancy="3.18" waitingTime="0.00" timeLoss="246.54" speed="5.96" speedRelative="0.43" departed="0" arrived="0" entered="628" left="628" laneChangedFrom="0" laneChangedTo="0"/>
        </edge>
        <edge id="-550432837#1">
            <lane id="-550432837#1_0" sampledSeconds="1653.46" traveltime="3.65" overlapTraveltime="4.04" density="2.95" laneDensity="2.95" occupancy="1.26" waitingTime="0.00" timeLoss="498.63" speed="9.62" speedRelative="0.69" departed="0" arrived="0" entered="409" left="409" laneChangedFrom="0" laneChangedTo="0"/>
        </edge>
        <edge id="-550432840#0">
            <lane id="-550432840#0_0" sampledSeconds="1842.79" traveltime="1.50" overlapTraveltime="1.89" density="5.92" laneDensity="5.92" occupancy="2.34" waitingTime="0.00" timeLoss="162.17" speed="12.59" speedRelative="0.91" departed="0" arrived="0" entered="973" left="973" laneChangedFrom="0" laneChangedTo="0"/>
        </edge>
        <edge id="-550432840#2">
            <lane id="-550432840#2_0" sampledSeconds="2155.02" traveltime="1.82" overlapTraveltime="2.21" density="5.74" laneDensity="5.74" occupancy="2.35" waitingTime="0.00" timeLoss="200.28" speed="12.52" speedRelative="0.90" departed="0" arrived="0" entered="973" left="973" laneChangedFrom="0" laneChangedTo="0"/>
        </edge>
        <edge id="-550432841#1">
            <lane id="-550432841#1_0" sampledSeconds="4418.88" traveltime="9.76" overlapTraveltime="10.80" density="7.53" laneDensity="7.53" occupancy="3.52" waitingTime="1767.00" timeLoss="2988.52" speed="3.75" speedRelative="0.27" departed="0" arrived="0" entered="409" left="409" laneChangedFrom="0" laneChangedTo="0"/>
            <lane id="-550432841#1_1" sampledSeconds="6383.75" traveltime="10.56" overlapTraveltime="11.32" density="10.87" laneDensity="10.87" occupancy="5.16" waitingTime="2878.00" timeLoss="4729.84" speed="3.58" speedRelative="0.26" departed="0" arrived="0" entered="564" left="564" laneChangedFrom="0" laneChangedTo="0"/>
        </edge>
        <edge id="-565560611#2">
            <lane id="-565560611#2_0" sampledSeconds="9006.42" traveltime="20.18" overlapTraveltime="21.04" density="11.21" laneDensity="11.21" occupancy="5.45" waitingTime="5813.00" timeLoss="7336.85" speed="2.55" speedRelative="0.18" departed="0" arrived="0" entered="428" left="428" laneChangedFrom="0" laneChangedTo="0"/>
        </edge>
        <edge id="-565560611#3">
            <lane id="-565560611#3_0" sampledSeconds="890.36" traveltime="1.69" overlapTraveltime="2.08" density="2.47" laneDensity="2.47" occupancy="1.00" waitingTime="0.00" timeLoss="55.74" speed="12.89" speedRelative="0.93" departed="0" arrived="0" entered="428" left="428" laneChangedFrom="0" laneChangedTo="0"/>
        </edge>
        <edge id="-582263960#2">
            <lane id="-582263960#2_0" sampledSeconds="7928.71" traveltime="14.72" overlapTraveltime="15.10" density="2.89" laneDensity="2.89" occupancy="1.35" waitingTime="0.00" timeLoss="1374.55" speed="11.35" speedRelative="0.82" departed="0" arrived="0" entered="1064" left="588" laneChangedFrom="779" laneChangedTo="303"/>
            <lane id="-582263960#2_1" sampledSeconds="24094.38" traveltime="14.01" overlapTraveltime="14.40" density="8.77" laneDensity="8.77" occupancy="4.25" waitingTime="5.00" timeLoss="3273.28" speed="11.90" speedRelative="0.86" departed="0" arrived="0" entered="1134" left="1610" laneChangedFrom="303" laneChangedTo="779"/>
        </edge>
        <edge id="-582263960#2.366">
            <lane id="-582263960#2.366_0" sampledSeconds="4348.09" traveltime="6.54" overlapTraveltime="7.39" density="3.96" laneDensity="3.96" occupancy="1.82" waitingTime="232.00" timeLoss="1013.64" speed="9.67" speedRelative="0.70" departed="0" arrived="0" entered="588" left="588" laneChangedFrom="1" laneChangedTo="1"/>
            <lane id="-582263960#2.366_1" sampledSeconds="11043.30" traveltime="6.37" overlapTraveltime="6.86" density="10.06" laneDensity="10.06" occupancy="4.71" waitingTime="711.00" timeLoss="2693.67" speed="10.42" speedRelative="0.75" departed="0" arrived="0" entered="1610" left="1610" laneChangedFrom="1" laneChangedTo="1"/>
        </edge>
        <edge id="-601718666#2">
            <lane id="-601718666#2_0" sampledSeconds="111135.41" traveltime="243.36" overlapTraveltime="244.55" density="87.83" laneDensity="87.83" occupancy="43.74" waitingTime="96420.00" timeLoss="108433.45" speed="0.33" speedRelative="0.02" departed="0" arrived="0" entered="454" left="454" laneChangedFrom="41" laneChangedTo="47"/>
            <lane id="-601718666#2_1" sampledSeconds="108357.93" traveltime="267.20" overlapTraveltime="268.74" density="85.63" laneDensity="85.63" occupancy="42.68" waitingTime="94176.00" timeLoss="105958.39" speed="0.30" speedRelative="0.02" departed="0" arrived="0" entered="408" left="395" laneChangedFrom="47" laneChangedTo="41"/>
        </edge>
        <edge id="-651999512#0">
            <lane id="-651999512#0_0" sampledSeconds="1275.44" traveltime="0.91" overlapTraveltime="1.31" density="6.76" laneDensity="6.76" occupancy="2.35" waitingTime="0.00" timeLoss="117.68" speed="12.53" speedRelative="0.90" departed="0" arrived="0" entered="973" left="973" laneChangedFrom="0" laneChangedTo="0"/>
        </edge>
        <edge id="-651999512#1">
            <lane id="-651999512#1_0" sampledSeconds="4164.51" traveltime="3.88" overlapTraveltime="4.28" density="5.18" laneDensity="5.18" occupancy="2.35" waitingTime="0.00" timeLoss="379.06" speed="12.55" speedRelative="0.90" departed="0" arrived="0" entered="973" left="973" laneChangedFrom="0" laneChangedTo="0"/>
        </edge>
        <edge id="-792703544#0">
            <lane id="-792703544#0_0" sampledSeconds="38.13" traveltime="0.56" overlapTraveltime="1.27" density="0.69" laneDensity="0.69" occupancy="0.14" waitingTime="0.00" timeLoss="13.96" speed="6.58" speedRelative="0.47" departed="0" arrived="0" entered="30" left="30" laneChangedFrom="0" laneChangedTo="0"/>
        </edge>
        <edge id="-792703544#1">
            <lane id="-792703544#1_0" sampledSeconds="74.73" traveltime="1.68" overlapTraveltime="2.49" density="0.32" laneDensity="0.32" occupancy="0.12" waitingTime="0.00" timeLoss="30.56" speed="7.72" speedRelative="0.56" departed="0" arrived="0" entered="30" left="30" laneChangedFrom="0" laneChangedTo="0"/>
        </edge>
        <edge id="-792703544#2">
            <lane id="-792703544#2_0" sampledSeconds="100.02" traveltime="2.84" overlapTraveltime="3.33" density="0.18" laneDensity="0.18" occupancy="0.08" waitingTime="0.00" timeLoss="16.95" speed="11.70" speedRelative="0.84" departed="0" arrived="0" entered="30" left="30" laneChangedFrom="0" laneChangedTo="0"/>
        </edge>
        <edge id="-821493797#0">