<?xml version="1.0" encoding="UTF-8"?>

<!-- generated on 2025-12-03 15:37:36 by Eclipse SUMO GUI Version 1.24.0
<sumoConfiguration xmlns:xsi="http://www.w3.org/2001/XMLSchema-instance" xsi:noNamespaceSchemaLocation="http://sumo.dlr.de/xsd/sumoConfiguration.xsd">

    <input>
        <net-file value="C:\Users\laebli\OneDrive - ETH Zurich\Microscopic\SUMO\251128_SUMO_V0_evening\Bellevue_V0.net.xml"/>
        <route-files value="C:\Users\laebli\OneDrive - ETH Zurich\Microscopic\SUMO\251128_SUMO_V0_evening\demand_evening.xml"/>
        <additional-files value="C:\Users\laebli\OneDrive - ETH Zurich\Microscopic\SUMO\251128_SUMO_V0_evening\detectors.add.xml"/>
    </input>

    <output>
        <lanedata-output value="C:\Users\laebli\OneDrive - ETH Zurich\Microscopic\SUMO\251128_SUMO_V0_evening\Output_LaneData_V0_evening.xml"/>
    </output>

</sumoConfiguration>
-->

<meandata xmlns:xsi="http://www.w3.org/2001/XMLSchema-instance" xsi:noNamespaceSchemaLocation="http://sumo.dlr.de/xsd/meandata_file.xsd">
    <interval begin="0.00" end="14597.00" id="DEFAULT_LANEDATA">
        <edge id="-10594647#1">
            <lane id="-10594647#1_0" sampledSeconds="13097.70" traveltime="194.86" overlapTraveltime="197.49" density="29.52" laneDensity="29.52" occupancy="14.68" waitingTime="12386.00" timeLoss="12916.44" speed="0.18" speedRelative="0.01" departed="0" arrived="0" entered="69" left="69" laneChangedFrom="0" laneChangedTo="0" teleported="4"/>
        </edge>
        <edge id="-10750844#2">
            <lane id="-10750844#2_0" sampledSeconds="4603.28" traveltime="10.12" overlapTraveltime="10.63" density="10.96" laneDensity="10.96" occupancy="5.24" waitingTime="3014.00" timeLoss="3541.98" speed="3.18" speedRelative="0.23" departed="0" arrived="0" entered="433" left="433" laneChangedFrom="0" laneChangedTo="0"/>
        </edge>
        <edge id="-1163569502#1">
            <lane id="-1163569502#1_0" sampledSeconds="43617.43" traveltime="62.55" overlapTraveltime="72.61" density="62.19" laneDensity="62.19" occupancy="28.88" waitingTime="36535.00" timeLoss="39761.34" speed="0.73" speedRelative="0.09" departed="0" arrived="0" entered="604" left="598" laneChangedFrom="0" laneChangedTo="0"/>
        </edge>
        <edge id="-11667106#10">
            <lane id="-11667106#10_0" sampledSeconds="3896.41" traveltime="5.94" overlapTraveltime="6.65" density="6.34" laneDensity="6.34" occupancy="2.83" waitingTime="0.00" timeLoss="568.77" speed="7.09" speedRelative="0.85" departed="0" arrived="0" entered="586" left="586" laneChangedFrom="0" laneChangedTo="0"/>
        </edge>
        <edge id="-11667106#2">
            <lane id="-11667106#2_0" sampledSeconds="5739.57" traveltime="27.26" overlapTraveltime="28.27" density="4.19" laneDensity="4.19" occupancy="2.04" waitingTime="2354.00" timeLoss="3372.49" speed="3.50" speedRelative="0.42" departed="0" arrived="0" entered="203" left="203" laneChangedFrom="0" laneChangedTo="0"/>
        </edge>
        <edge id="-11667106#5">
            <lane id="-11667106#5_0" sampledSeconds="5084.75" traveltime="8.01" overlapTraveltime="8.77" density="6.46" laneDensity="6.46" occupancy="2.96" waitingTime="104.00" timeLoss="907.17" speed="6.72" speedRelative="0.81" departed="0" arrived="0" entered="580" left="580" laneChangedFrom="0" laneChangedTo="0"/>
        </edge>
        <edge id="-11667106#8">
            <lane id="-11667106#8_0" sampledSeconds="3920.83" traveltime="5.98" overlapTraveltime="6.69" density="6.44" laneDensity="6.44" occupancy="2.88" waitingTime="37.00" timeLoss="621.85" speed="6.98" speedRelative="0.84" departed="0" arrived="0" entered="586" left="585" laneChangedFrom="0" laneChangedTo="0"/>
        </edge>
        <edge id="-1168931395#1">
            <lane id="-1168931395#1_0" sampledSeconds="31560.34" traveltime="22.47" overlapTraveltime="31.77" density="92.68" laneDensity="92.68" occupancy="36.15" waitingTime="23842.00" timeLoss="29502.52" speed="0.89" speedRelative="0.06" departed="0" arrived="0" entered="922" left="1072" laneChangedFrom="26" laneChangedTo="187"/>
            <lane id="-1168931395#1_1" sampledSeconds="37002.30" traveltime="17.80" overlapTraveltime="24.91" density="108.66" laneDensity="108.66" occupancy="42.85" waitingTime="26507.00" timeLoss="33959.33" speed="1.14" speedRelative="0.08" departed="0" arrived="0" entered="1575" left="1411" laneChangedFrom="187" laneChangedTo="26"/>
        </edge>
        <edge id="-1168931399#2">
            <lane id="-1168931399#2_0" sampledSeconds="10647.27" traveltime="27.62" overlapTraveltime="28.57" density="43.34" laneDensity="43.34" occupancy="17.46" waitingTime="8743.00" timeLoss="9714.18" speed="0.76" speedRelative="0.09" departed="0" arrived="0" entered="373" left="373" laneChangedFrom="0" laneChangedTo="0" teleported="1"/>
        </edge>
        <edge id="-1168931401#1">
            <lane id="-1168931401#1_0" sampledSeconds="1100.64" traveltime="2.11" overlapTraveltime="2.51" density="3.33" laneDensity="3.33" occupancy="1.35" waitingTime="0.00" timeLoss="223.96" speed="10.99" speedRelative="0.79" departed="0" arrived="0" entered="438" left="438" laneChangedFrom="0" laneChangedTo="0"/>
        </edge>
        <edge id="-125860019#2">
            <lane id="-125860019#2_0" sampledSeconds="6950.14" traveltime="33.33" overlapTraveltime="34.63" density="32.70" laneDensity="32.70" occupancy="15.83" waitingTime="5614.00" timeLoss="6315.65" speed="0.56" speedRelative="0.10" departed="0" arrived="0" entered="201" left="200" laneChangedFrom="0" laneChangedTo="0"/>
        </edge>
        <edge id="-125860019#4">
            <lane id="-125860019#4_0" sampledSeconds="1005.35" traveltime="3.95" overlapTraveltime="5.00" density="4.46" laneDensity="4.46" occupancy="1.70" waitingTime="91.00" timeLoss="251.92" speed="4.09" speedRelative="0.73" departed="0" arrived="0" entered="201" left="201" laneChangedFrom="0" laneChangedTo="0"/>
        </edge>
        <edge id="-14389891#0">
            <lane id="-14389891#0_0" sampledSeconds="13167.72" traveltime="29.79" overlapTraveltime="35.30" density="12.03" laneDensity="12.03" occupancy="5.63" waitingTime="8114.00" timeLoss="9555.18" speed="2.27" speedRelative="0.27" departed="0" arrived="0" entered="373" left="373" laneChangedFrom="0" laneChangedTo="0"/>
        </edge>
        <edge id="-14389891#3">
            <lane id="-14389891#3_0" sampledSeconds="53301.04" traveltime="87.85" overlapTraveltime="90.51" density="65.31" laneDensity="65.31" occupancy="30.97" waitingTime="44118.00" timeLoss="48846.93" speed="0.67" speedRelative="0.08" departed="0" arrived="0" entered="594" left="586" laneChangedFrom="0" laneChangedTo="0"/>
        </edge>
        <edge id="-14389891#4">
            <lane id="-14389891#4_0" sampledSeconds="11859.73" traveltime="10.73" overlapTraveltime="19.99" density="101.43" laneDensity="101.43" occupancy="29.68" waitingTime="9908.00" timeLoss="10925.69" speed="0.65" speedRelative="0.08" departed="0" arrived="0" entered="595" left="594" laneChangedFrom="0" laneChangedTo="0"/>
        </edge>
        <edge id="-14389891#5">
            <lane id="-14389891#5_0" sampledSeconds="12808.86" traveltime="20.66" overlapTraveltime="21.52" density="85.61" laneDensity="85.61" occupancy="29.07" waitingTime="10998.00" timeLoss="11710.15" speed="0.71" speedRelative="0.09" departed="0" arrived="0" entered="597" left="595" laneChangedFrom="0" laneChangedTo="0" teleported="1"/>
        </edge>
        <edge id="-15677258#0">
            <lane id="-15677258#0_0" sampledSeconds="44.93" traveltime="1.79" overlapTraveltime="2.81" density="0.35" laneDensity="0.35" occupancy="0.12" waitingTime="0.00" timeLoss="14.87" speed="4.94" speedRelative="0.59" departed="0" arrived="0" entered="16" left="16" laneChangedFrom="0" laneChangedTo="0"/>
        </edge>
        <edge id="-15677258#1">
            <lane id="-15677258#1_0" sampledSeconds="40.40" traveltime="1.76" overlapTraveltime="2.53" density="0.35" laneDensity="0.35" occupancy="0.10" waitingTime="0.00" timeLoss="16.53" speed="5.12" speedRelative="0.61" departed="0" arrived="0" entered="16" left="16" laneChangedFrom="0" laneChangedTo="0"/>
        </edge>
        <edge id="-15677510#0">
            <lane id="-15677510#0_0" sampledSeconds="29391.32" traveltime="160.14" overlapTraveltime="161.49" density="95.52" laneDensity="95.52" occupancy="47.40" waitingTime="27349.00" timeLoss="28969.47" speed="0.16" speedRelative="0.01" departed="0" arrived="0" entered="186" left="186" laneChangedFrom="0" laneChangedTo="0"/>
        </edge>
        <edge id="-15677510#1">
            <lane id="-15677510#1_0" sampledSeconds="37191.98" traveltime="203.18" overlapTraveltime="204.35" density="80.78" laneDensity="80.78" occupancy="34.68" waitingTime="34382.00" timeLoss="36713.69" speed="0.18" speedRelative="0.01" departed="0" arrived="0" entered="186" left="186" laneChangedFrom="0" laneChangedTo="0"/>
        </edge>
        <edge id="-15677510#2">
            <lane id="-15677510#2_0" sampledSeconds="235.29" traveltime="0.10" overlapTraveltime="1.29" density="25.19" laneDensity="25.19" occupancy="1.35" waitingTime="0.00" timeLoss="161.51" speed="4.36" speedRelative="0.31" departed="0" arrived="0" entered="186" left="186" laneChangedFrom="0" laneChangedTo="0"/>
        </edge>
        <edge id="-15677510#3">
            <lane id="-15677510#3_0" sampledSeconds="322.46" traveltime="19.50" overlapTraveltime="20.15" density="0.23" laneDensity="0.23" occupancy="0.11" waitingTime="178.00" timeLoss="207.90" speed="4.96" speedRelative="0.36" departed="0" arrived="0" entered="16" left="16" laneChangedFrom="0" laneChangedTo="0"/>
        </edge>
        <edge id="-172213041#1">
            <lane id="-172213041#1_0" sampledSeconds="127417.05" traveltime="113.88" overlapTraveltime="114.75" density="69.16" laneDensity="69.16" occupancy="34.39" waitingTime="102803.00" timeLoss="116761.06" speed="1.14" speedRelative="0.08" departed="0" arrived="0" entered="1359" left="1040" laneChangedFrom="347" laneChangedTo="45"/>
            <lane id="-172213041#1_1" sampledSeconds="137140.74" traveltime="140.77" overlapTraveltime="141.90" density="74.44" laneDensity="74.44" occupancy="36.96" waitingTime="108167.00" timeLoss="127912.68" speed="0.92" speedRelative="0.07" departed="0" arrived="0" entered="734" left="1020" laneChangedFrom="45" laneChangedTo="347"/>
        </edge>
        <edge id="-172213042">
            <lane id="-172213042_0" sampledSeconds="55143.83" traveltime="50.47" overlapTraveltime="59.79" density="79.88" laneDensity="79.88" occupancy="37.66" waitingTime="45360.00" timeLoss="51607.11" speed="0.87" speedRelative="0.06" departed="0" arrived="0" entered="985" left="902" laneChangedFrom="86" laneChangedTo="8"/>
            <lane id="-172213042_1" sampledSeconds="54720.56" traveltime="114.15" overlapTraveltime="134.82" density="79.27" laneDensity="79.27" occupancy="37.39" waitingTime="47507.00" timeLoss="53196.51" speed="0.39" speedRelative="0.03" departed="0" arrived="0" entered="354" left="420" laneChangedFrom="15" laneChangedTo="86"/>
            <lane id="-172213042_2" sampledSeconds="4164.25" traveltime="9.64" overlapTraveltime="11.79" density="6.03" laneDensity="6.03" occupancy="2.81" waitingTime="2125.00" timeLoss="2829.59" speed="4.44" speedRelative="0.32" departed="0" arrived="0" entered="348" left="355" laneChangedFrom="0" laneChangedTo="7"/>
        </edge>
        <edge id="-172222117#1">
            <lane id="-172222117#1_0" sampledSeconds="123444.05" traveltime="122.36" overlapTraveltime="123.33" density="100.21" laneDensity="100.21" occupancy="49.00" waitingTime="100156.00" timeLoss="116896.24" speed="0.72" speedRelative="0.05" departed="0" arrived="0" entered="1103" left="999" laneChangedFrom="104" laneChangedTo="48"/>
            <lane id="-172222117#1_1" sampledSeconds="124086.55" traveltime="166.49" overlapTraveltime="167.20" density="100.73" laneDensity="100.73" occupancy="49.25" waitingTime="104664.00" timeLoss="119307.45" speed="0.53" speedRelative="0.04" departed="0" arrived="0" entered="713" left="759" laneChangedFrom="48" laneChangedTo="104"/>
        </edge>
        <edge id="-188708009">
            <lane id="-188708009_0" sampledSeconds="130110.65" traveltime="108.34" overlapTraveltime="108.82" density="103.56" laneDensity="103.56" occupancy="51.08" waitingTime="98451.00" timeLoss="122171.27" speed="0.84" speedRelative="0.06" departed="0" arrived="0" entered="1153" left="1270" laneChangedFrom="182" laneChangedTo="304"/>
            <lane id="-188708009_1" sampledSeconds="128715.56" traveltime="93.12" overlapTraveltime="94.11" density="102.45" laneDensity="102.45" occupancy="50.33" waitingTime="98648.24" timeLoss="119689.52" speed="0.97" speedRelative="0.07" departed="0" arrived="0" entered="1415" left="1296" laneChangedFrom="304" laneChangedTo="188"/>
            <lane id="-188708009_2" sampledSeconds="166.01" traveltime="31.90" overlapTraveltime="33.76" density="0.13" laneDensity="0.13" occupancy="0.07" waitingTime="103.00" timeLoss="131.28" speed="2.70" speedRelative="0.19" departed="0" arrived="0" entered="6" left="0" laneChangedFrom="6" laneChangedTo="0"/>
        </edge>
        <edge id="-188708010">
            <lane id="-188708010_0" sampledSeconds="55785.12" traveltime="47.12" overlapTraveltime="48.13" density="113.40" laneDensity="113.40" occupancy="51.32" waitingTime="43890.00" timeLoss="52514.20" speed="0.80" speedRelative="0.06" departed="0" arrived="0" entered="1117" left="1158" laneChangedFrom="21" laneChangedTo="72"/>
            <lane id="-188708010_1" sampledSeconds="56668.52" traveltime="41.80" overlapTraveltime="42.79" density="115.20" laneDensity="115.20" occupancy="52.04" waitingTime="43651.00" timeLoss="52958.09" speed="0.90" speedRelative="0.07" departed="0" arrived="0" entered="1372" left="1317" laneChangedFrom="72" laneChangedTo="21"/>
        </edge>
        <edge id="-27361348#1">
            <lane id="-27361348#1_0" sampledSeconds="21144.97" traveltime="110.18" overlapTraveltime="113.14" density="12.02" laneDensity="12.02" occupancy="5.98" waitingTime="16951.00" timeLoss="19412.81" speed="1.11" speedRelative="0.08" departed="0" arrived="0" entered="215" left="151" laneChangedFrom="0" laneChangedTo="20"/>
            <lane id="-27361348#1_1" sampledSeconds="184329.41" traveltime="327.49" overlapTraveltime="351.92" density="104.76" laneDensity="104.76" occupancy="52.04" waitingTime="154909.00" timeLoss="179498.00" speed="0.36" speedRelative="0.03" departed="0" arrived="0" entered="534" left="524" laneChangedFrom="65" laneChangedTo="65"/>
            <lane id="-27361348#1_2" sampledSeconds="184126.59" traveltime="290.34" overlapTraveltime="312.30" density="104.65" laneDensity="104.65" occupancy="51.95" waitingTime="153696.00" timeLoss="178787.33" speed="0.40" speedRelative="0.03" departed="0" arrived="0" entered="596" left="583" laneChangedFrom="59" laneChangedTo="52"/>
        </edge>
        <edge id="-30748799">
            <lane id="-30748799_0" sampledSeconds="19019.59" traveltime="28.14" overlapTraveltime="30.73" density="23.73" laneDensity="23.73" occupancy="11.38" waitingTime="14670.00" timeLoss="16308.30" speed="1.95" speedRelative="0.14" departed="0" arrived="0" entered="619" left="619" laneChangedFrom="0" laneChangedTo="0"/>
        </edge>
        <edge id="-313458176#4">
            <lane id="-313458176#4_0" sampledSeconds="363129.11" traveltime="596.44" overlapTraveltime="598.15" density="115.14" laneDensity="115.14" occupancy="57.45" waitingTime="307622.00" timeLoss="353250.17" speed="0.37" speedRelative="0.03" departed="0" arrived="0" entered="605" left="580" laneChangedFrom="71" laneChangedTo="81" teleported="9"/>
            <lane id="-313458176#4_1" sampledSeconds="356794.59" traveltime="600.25" overlapTraveltime="601.19" density="113.14" laneDensity="113.14" occupancy="56.44" waitingTime="302058.00" timeLoss="347324.59" speed="0.37" speedRelative="0.03" departed="0" arrived="0" entered="633" left="595" laneChangedFrom="81" laneChangedTo="71" teleported="4"/>
        </edge>
        <edge id="-35162767#0">
            <lane id="-35162767#0_0" sampledSeconds="4608.14" traveltime="4.66" overlapTraveltime="5.32" density="9.23" laneDensity="9.23" occupancy="4.18" waitingTime="1376.00" timeLoss="2129.99" speed="7.37" speedRelative="0.53" departed="0" arrived="0" entered="866" left="866" laneChangedFrom="0" laneChangedTo="0"/>
        </edge>
        <edge id="-35162767#1">
            <lane id="-35162767#1_0" sampledSeconds="6676.76" traveltime="7.14" overlapTraveltime="7.71" density="5.97" laneDensity="5.97" occupancy="2.77" waitingTime="624.00" timeLoss="1516.95" speed="10.59" speedRelative="0.76" departed="0" arrived="0" entered="866" left="866" laneChangedFrom="0" laneChangedTo="0"/>
        </edge>
        <edge id="-35162769#0">
            <lane id="-35162769#0_0" sampledSeconds="4330.86" traveltime="4.59" overlapTraveltime="5.00" density="5.26" laneDensity="5.26" occupancy="2.41" waitingTime="4.00" timeLoss="447.09" speed="12.29" speedRelative="0.88" departed="0" arrived="0" entered="866" left="866" laneChangedFrom="0" laneChangedTo="0"/>
        </edge>
        <edge id="-35162769#1">
            <lane id="-35162769#1_0" sampledSeconds="2005.48" traveltime="1.91" overlapTraveltime="2.32" density="5.80" laneDensity="5.80" occupancy="2.39" waitingTime="0.00" timeLoss="191.58" speed="12.39" speedRelative="0.89" departed="0" arrived="0" entered="866" left="866" laneChangedFrom="0" laneChangedTo="0"/>
        </edge>
        <edge id="-35162769#2">
            <lane id="-35162769#2_0" sampledSeconds="2252.61" traveltime="2.20" overlapTraveltime="2.60" density="5.66" laneDensity="5.66" occupancy="2.39" waitingTime="0.00" timeLoss="214.34" speed="12.40" speedRelative="0.89" departed="0" arrived="0" entered="866" left="866" laneChangedFrom="0" laneChangedTo="0"/>
        </edge>
        <edge id="-4398888#0">
            <lane id="-4398888#0_0" sampledSeconds="110692.31" traveltime="65.27" overlapTraveltime="71.84" density="102.56" laneDensity="102.56" occupancy="46.41" waitingTime="74884.00" timeLoss="101824.02" speed="1.10" speedRelative="0.08" departed="0" arrived="0" entered="1396" left="1629" laneChangedFrom="103" laneChangedTo="343"/>
            <lane id="-4398888#0_1" sampledSeconds="112799.77" traveltime="62.97" overlapTraveltime="69.77" density="104.51" laneDensity="104.51" occupancy="47.32" waitingTime="76684.76" timeLoss="103568.13" speed="1.13" speedRelative="0.08" departed="0" arrived="0" entered="1769" left="1522" laneChangedFrom="343" laneChangedTo="104"/>
            <lane id="-4398888#0_2" sampledSeconds="5.06" traveltime="6.69" overlapTraveltime="7.15" density="0.00" laneDensity="0.00" occupancy="0.00" waitingTime="0.00" timeLoss="0.96" speed="11.05" speedRelative="0.80" departed="0" arrived="0" entered="1" left="0" laneChangedFrom="1" laneChangedTo="0"/>
        </edge>
        <edge id="-4398888#0.74">
            <lane id="-4398888#0.74_0" sampledSeconds="43114.15" traveltime="20.93" overlapTraveltime="26.73" density="133.33" laneDensity="133.33" occupancy="50.98" waitingTime="31180.00" timeLoss="40093.18" speed="0.94" speedRelative="0.07" departed="0" arrived="0" entered="1630" left="1609" laneChangedFrom="30" laneChangedTo="12"/>
            <lane id="-4398888#0.74_1" sampledSeconds="43819.40" traveltime="22.25" overlapTraveltime="28.57" density="133.33" laneDensity="133.33" occupancy="51.40" waitingTime="32166.00" timeLoss="40968.22" speed="0.88" speedRelative="0.06" departed="0" arrived="0" entered="1521" left="1536" laneChangedFrom="12" laneChangedTo="30"/>
        </edge>
        <edge id="-4398888#2">
            <lane id="-4398888#2_0" sampledSeconds="23673.91" traveltime="11.82" overlapTraveltime="17.41" density="95.80" laneDensity="95.80" occupancy="38.58" waitingTime="15864.00" timeLoss="21498.82" speed="1.26" speedRelative="0.09" departed="0" arrived="0" entered="1302" left="1395" laneChangedFrom="66" laneChangedTo="161"/>
            <lane id="-4398888#2_1" sampledSeconds="24204.28" traveltime="8.77" overlapTraveltime="13.45" density="97.94" laneDensity="97.94" occupancy="39.79" waitingTime="15545.00" timeLoss="21348.86" speed="1.63" speedRelative="0.12" departed="0" arrived="0" entered="1866" left="1770" laneChangedFrom="161" laneChangedTo="66"/>
        </edge>
        <edge id="-46656282#2">
            <lane id="-46656282#2_0" sampledSeconds="14628.37" traveltime="21.44" overlapTraveltime="21.28" density="25.15" laneDensity="25.15" occupancy="12.21" waitingTime="7994.00" timeLoss="12095.49" speed="2.11" speedRelative="0.15" departed="0" arrived="0" entered="0" left="1032" laneChangedFrom="0" laneChangedTo="1032"/>
            <lane id="-46656282#2_1" sampledSeconds="6029.51" traveltime="15.55" overlapTraveltime="17.50" density="10.37" laneDensity="10.37" occupancy="4.97" waitingTime="3069.00" timeLoss="4919.82" speed="2.56" speedRelative="0.18" departed="0" arrived="0" entered="1032" left="0" laneChangedFrom="1032" laneChangedTo="0"/>
        </edge>
        <edge id="-4727535">
            <lane id="-4727535_0" sampledSeconds="751.79" traveltime="0.09" overlapTraveltime="0.93" density="133.33" laneDensity="133.33" occupancy="5.03" waitingTime="53.00" timeLoss="354.82" speed="5.50" speedRelative="0.40" departed="0" arrived="0" entered="809" left="808" laneChangedFrom="0" laneChangedTo="0"/>
            <lane id="-4727535_1" sampledSeconds="592.38" traveltime="0.18" overlapTraveltime="1.18" density="133.33" laneDensity="133.33" occupancy="3.49" waitingTime="74.00" timeLoss="373.44" speed="4.34" speedRelative="0.31" departed="0" arrived="0" entered="502" left="502" laneChangedFrom="0" laneChangedTo="0"/>
            <lane id="-4727535_2" sampledSeconds="280.33" traveltime="0.02" overlapTraveltime="0.79" density="133.33" laneDensity="133.33" occupancy="1.87" waitingTime="0.00" timeLoss="116.68" speed="6.47" speedRelative="0.47" departed="0" arrived="0" entered="354" left="354" laneChangedFrom="0" laneChangedTo="0"/>
        </edge>
        <edge id="-544418922#1">
            <lane id="-544418922#1_0" sampledSeconds="37184.52" traveltime="59.16" overlapTraveltime="59.90" density="44.75" laneDensity="44.75" occupancy="21.71" waitingTime="30404.00" timeLoss="34339.32" speed="1.03" speedRelative="0.07" departed="0" arrived="0" entered="621" left="621" laneChangedFrom="0" laneChangedTo="0" teleported="2"/>
        </edge>
        <edge id="-544418922#2">
            <lane id="-544418922#2_0" sampledSeconds="2659.35" traveltime="0.73" overlapTraveltime="4.28" density="30.36" laneDensity="30.36" occupancy="8.71" waitingTime="1807.00" timeLoss="2160.00" speed="2.57" speedRelative="0.18" departed="0" arrived="0" entered="621" left="621" laneChangedFrom="0" laneChangedTo="0"/>
        </edge>
        <edge id="-550432837#1">
            <lane id="-550432837#1_0" sampledSeconds="1578.77" traveltime="3.66" overlapTraveltime="4.05" density="3.19" laneDensity="3.19" occupancy="1.36" waitingTime="0.00" timeLoss="471.87" speed="9.61" speedRelative="0.69" departed="0" arrived="0" entered="390" left="389" laneChangedFrom="0" laneChangedTo="0"/>
        </edge>
        <edge id="-550432840#0">
            <lane id="-550432840#0_0" sampledSeconds="1682.22" traveltime="1.54" overlapTraveltime="1.94" density="6.11" laneDensity="6.11" occupancy="2.42" waitingTime="0.00" timeLoss="174.85" speed="12.28" speedRelative="0.88" departed="0" arrived="0" entered="866" left="866" laneChangedFrom="0" laneChangedTo="0"/>
        </edge>
        <edge id="-550432840#2">
            <lane id="-550432840#2_0" sampledSeconds="1957.36" traveltime="1.85" overlapTraveltime="2.26" density="5.90" laneDensity="5.90" occupancy="2.42" waitingTime="0.00" timeLoss="204.13" speed="12.27" speedRelative="0.88" departed="0" arrived="0" entered="866" left="866" laneChangedFrom="0" laneChangedTo="0"/>
        </edge>
        <edge id="-550432841#1">
            <lane id="-550432841#1_0" sampledSeconds="11543.83" traveltime="28.53" overlapTraveltime="29.60" density="22.25" laneDensity="22.25" occupancy="10.82" waitingTime="8624.00" timeLoss="10170.74" speed="1.37" speedRelative="0.10" departed="0" arrived="0" entered="390" left="390" laneChangedFrom="0" laneChangedTo="0"/>
            <lane id="-550432841#1_1" sampledSeconds="16933.48" traveltime="33.78" overlapTraveltime="35.58" density="32.63" laneDensity="32.63" occupancy="15.83" waitingTime="13411.00" timeLoss="15525.17" speed="1.14" speedRelative="0.08" departed="0" arrived="0" entered="476" left="476" laneChangedFrom="0" laneChangedTo="0"/>
        </edge>
        <edge id="-565560611#2">
            <lane id="-565560611#2_0" sampledSeconds="6866.51" traveltime="15.02" overlapTraveltime="15.68" density="9.67" laneDensity="9.67" occupancy="4.65" waitingTime="4114.00" timeLoss="5163.63" speed="3.42" speedRelative="0.25" departed="0" arrived="0" entered="438" left="438" laneChangedFrom="0" laneChangedTo="0"/>
        </edge>
        <edge id="-565560611#3">
            <lane id="-565560611#3_0" sampledSeconds="1089.05" traveltime="1.88" overlapTraveltime="2.49" density="3.42" laneDensity="3.42" occupancy="1.35" waitingTime="108.00" timeLoss="237.76" speed="10.78" speedRelative="0.78" departed="0" arrived="0" entered="438" left="438" laneChangedFrom="0" laneChangedTo="0"/>
        </edge>
        <edge id="-5736332#1">
            <lane id="-5736332#1_0" sampledSeconds="1484.25" traveltime="73.03" overlapTraveltime="74.64" density="2.58" laneDensity="2.58" occupancy="1.27" waitingTime="1321.00" timeLoss="1376.43" speed="0.60" speedRelative="0.07" departed="0" arrived="0" entered="20" left="20" laneChangedFrom="0" laneChangedTo="0" teleported="1"/>
        </edge>
        <edge id="-582263960#2">
            <lane id="-582263960#2_0" sampledSeconds="252548.11" traveltime="294.14" overlapTraveltime="294.91" density="104.00" laneDensity="104.00" occupancy="51.69" waitingTime="199379.21" timeLoss="241827.98" speed="0.58" speedRelative="0.04" departed="0" arrived="0" entered="757" left="907" laneChangedFrom="73" laneChangedTo="245"/>
            <lane id="-582263960#2_1" sampledSeconds="252584.94" traveltime="347.26" overlapTraveltime="349.67" density="104.01" laneDensity="104.01" occupancy="51.72" waitingTime="202681.98" timeLoss="243600.43" speed="0.49" speedRelative="0.04" departed="0" arrived="0" entered="842" left="650" laneChangedFrom="245" laneChangedTo="73"/>
        </edge>
        <edge id="-582263960#2.366">
            <lane id="-582263960#2.366_0" sampledSeconds="106322.74" traveltime="116.96" overlapTraveltime="117.94" density="109.56" laneDensity="109.56" occupancy="54.32" waitingTime="89825.00" timeLoss="101420.01" speed="0.61" speedRelative="0.04" departed="0" arrived="0" entered="907" left="895" laneChangedFrom="20" laneChangedTo="17" teleported="6"/>
            <lane id="-582263960#2.366_1" sampledSeconds="106138.74" traveltime="163.35" overlapTraveltime="164.38" density="109.38" laneDensity="109.38" occupancy="54.31" waitingTime="91582.00" timeLoss="102806.38" speed="0.43" speedRelative="0.03" departed="0" arrived="0" entered="650" left="644" laneChangedFrom="17" laneChangedTo="20" teleported="3"/>
        </edge>
        <edge id="-601718666#2">
            <lane id="-601718666#2_0" sampledSeconds="142585.86" traveltime="219.43" overlapTraveltime="220.07" density="127.51" laneDensity="127.51" occupancy="63.24" waitingTime="124489.00" timeLoss="138707.62" speed="0.37" speedRelative="0.03" departed="0" arrived="0" entered="743" left="691" laneChangedFrom="13" laneChangedTo="27" teleported="7"/>
            <lane id="-601718666#2_1" sampledSeconds="133265.46" traveltime="216.61" overlapTraveltime="217.89" density="119.17" laneDensity="119.17" occupancy="58.88" waitingTime="116600.00" timeLoss="129664.49" speed="0.37" speedRelative="0.03" departed="0" arrived="0" entered="622" left="600" laneChangedFrom="25" laneChangedTo="13" teleported="7"/>
        </edge>
        <edge id="-651999512#0">
            <lane id="-651999512#0_0" sampledSeconds="1199.81" traveltime="0.97" overlapTraveltime="1.39" density="7.19" laneDensity="7.19" occupancy="2.52" waitingTime="13.00" timeLoss="161.40" speed="11.86" speedRelative="0.85" departed="0" arrived="0" entered="866" left="866" laneChangedFrom="0" laneChangedTo="0"/>
        </edge>
        <edge id="-651999512#1">
            <lane id="-651999512#1_0" sampledSeconds="3805.90" traveltime="3.98" overlapTraveltime="4.39" density="5.35" laneDensity="5.35" occupancy="2.43" waitingTime="0.00" timeLoss="410.69" speed="12.22" speedRelative="0.88" departed="0" arrived="0" entered="866" left="866" laneChangedFrom="0" laneChangedTo="0"/>
        </edge>
        <edge id="-821493797#0">
            <lane id="-821493797#0_0" sampledSeconds="11030.64" traveltime="11.92" overlapTraveltime="13.59" density="107.80" laneDensity="107.80" occupancy="50.50" waitingTime="9154.00" timeLoss="10173.38" speed="0.88" speedRelative="0.06" departed="0" arrived="0" entered="820" left="807" laneChangedFrom="12" laneChangedTo="0"/>
            <lane id="-821493797#0_1" sampledSeconds="10965.35" traveltime="20.87" overlapTraveltime="21.96" density="107.16" laneDensity="107.16" occupancy="51.10" waitingTime="9541.00" timeLoss="10485.60" speed="0.55" speedRelative="0.04" departed="0" arrived="0" entered="492" left="503" laneChangedFrom="0" laneChangedTo="12" teleported="1"/>