<?xml version="1.0" encoding="UTF-8"?>

<!-- generated on 2025-12-03 15:47:16 by Eclipse SUMO GUI Version 1.24.0
<sumoConfiguration xmlns:xsi="http://www.w3.org/2001/XMLSchema-instance" xsi:noNamespaceSchemaLocation="http://sumo.dlr.de/xsd/sumoConfiguration.xsd">

    <input>
        <net-file value="C:\Users\laebli\OneDrive - ETH Zurich\Microscopic\SUMO\251128_SUMO_V2_morning\Bellevue_V2.net.xml"/>
        <route-files value="C:\Users\laebli\OneDrive - ETH Zurich\Microscopic\SUMO\251128_SUMO_V2_morning\demand_morning.xml"/>
        <additional-files value="C:\Users\laebli\OneDrive - ETH Zurich\Microscopic\SUMO\251128_SUMO_V2_morning\detectors.add.xml"/>
    </input>

    <output>
        <lanedata-output value="C:\Users\laebli\OneDrive - ETH Zurich\Microscopic\SUMO\251128_SUMO_V2_morning\Output_LaneData_V2_morning.xml"/>
    </output>

</sumoConfiguration>
-->

<meandata xmlns:xsi="http://www.w3.org/2001/XMLSchema-instance" xsi:noNamespaceSchemaLocation="http://sumo.dlr.de/xsd/meandata_file.xsd">
    <interval begin="0.00" end="15355.00" id="DEFAULT_LANEDATA">
        <edge id="-10594647#1">
            <lane id="-10594647#1_0" sampledSeconds="4662.12" traveltime="17.66" overlapTraveltime="18.65" density="9.99" laneDensity="9.99" occupancy="4.79" waitingTime="2976.00" timeLoss="4000.30" speed="1.90" speedRelative="0.14" departed="0" arrived="0" entered="250" left="250" laneChangedFrom="0" laneChangedTo="0"/>
        </edge>
        <edge id="-10750844#2">
            <lane id="-10750844#2_0" sampledSeconds="1720.06" traveltime="3.78" overlapTraveltime="4.22" density="3.89" laneDensity="3.89" occupancy="1.76" waitingTime="571.00" timeLoss="715.83" speed="8.01" speedRelative="0.58" departed="0" arrived="0" entered="408" left="408" laneChangedFrom="0" laneChangedTo="0"/>
        </edge>
        <edge id="-1163569502#1">
            <lane id="-1163569502#1_0" sampledSeconds="890.28" traveltime="6.57" overlapTraveltime="7.24" density="1.21" laneDensity="1.21" occupancy="0.54" waitingTime="0.00" timeLoss="93.31" speed="7.33" speedRelative="0.88" departed="0" arrived="0" entered="123" left="123" laneChangedFrom="0" laneChangedTo="0"/>
        </edge>
        <edge id="-11667106#10">
            <lane id="-11667106#10_0" sampledSeconds="5003.37" traveltime="5.87" overlapTraveltime="6.57" density="7.73" laneDensity="7.73" occupancy="3.46" waitingTime="0.00" timeLoss="672.73" speed="7.17" speedRelative="0.86" departed="0" arrived="0" entered="761" left="761" laneChangedFrom="0" laneChangedTo="0"/>
        </edge>
        <edge id="-11667106#2">
            <lane id="-11667106#2_0" sampledSeconds="7789.25" traveltime="25.80" overlapTraveltime="26.68" density="5.41" laneDensity="5.41" occupancy="2.63" waitingTime="2895.00" timeLoss="4389.92" speed="3.71" speedRelative="0.44" departed="0" arrived="0" entered="292" left="292" laneChangedFrom="0" laneChangedTo="0"/>
        </edge>
        <edge id="-11667106#5">
            <lane id="-11667106#5_0" sampledSeconds="6478.37" traveltime="7.76" overlapTraveltime="8.51" density="7.83" laneDensity="7.83" occupancy="3.58" waitingTime="61.00" timeLoss="993.33" speed="6.92" speedRelative="0.83" departed="0" arrived="0" entered="761" left="761" laneChangedFrom="0" laneChangedTo="0"/>
        </edge>
        <edge id="-11667106#8">
            <lane id="-11667106#8_0" sampledSeconds="4988.87" traveltime="5.85" overlapTraveltime="6.56" density="7.79" laneDensity="7.79" occupancy="3.48" waitingTime="0.00" timeLoss="694.98" speed="7.13" speedRelative="0.86" departed="0" arrived="0" entered="761" left="761" laneChangedFrom="0" laneChangedTo="0"/>
        </edge>
        <edge id="-1168931395#1">
            <lane id="-1168931395#1_0" sampledSeconds="957.92" traveltime="1.89" overlapTraveltime="2.27" density="2.67" laneDensity="2.67" occupancy="1.10" waitingTime="0.00" timeLoss="90.98" speed="12.46" speedRelative="0.90" departed="0" arrived="0" entered="425" left="419" laneChangedFrom="6" laneChangedTo="0"/>
            <lane id="-1168931395#1_1" sampledSeconds="1480.85" traveltime="2.16" overlapTraveltime="2.56" density="4.13" laneDensity="4.13" occupancy="1.69" waitingTime="0.00" timeLoss="292.09" speed="11.07" speedRelative="0.80" departed="0" arrived="0" entered="575" left="581" laneChangedFrom="0" laneChangedTo="6"/>
        </edge>
        <edge id="-1168931399#2">
            <lane id="-1168931399#2_0" sampledSeconds="2698.68" traveltime="20.99" overlapTraveltime="22.17" density="10.44" laneDensity="10.44" occupancy="4.86" waitingTime="2024.00" timeLoss="2399.51" speed="0.98" speedRelative="0.12" departed="0" arrived="0" entered="122" left="121" laneChangedFrom="0" laneChangedTo="0"/>
        </edge>
        <edge id="-1168931401#1">
            <lane id="-1168931401#1_0" sampledSeconds="1083.56" traveltime="2.25" overlapTraveltime="2.66" density="3.12" laneDensity="3.12" occupancy="1.26" waitingTime="0.00" timeLoss="262.52" speed="10.40" speedRelative="0.75" departed="0" arrived="0" entered="408" left="408" laneChangedFrom="0" laneChangedTo="0"/>
        </edge>
        <edge id="-125860019#2">
            <lane id="-125860019#2_0" sampledSeconds="2736.41" traveltime="20.64" overlapTraveltime="22.12" density="12.24" laneDensity="12.24" occupancy="5.81" waitingTime="1926.00" timeLoss="2345.89" speed="0.88" speedRelative="0.16" departed="0" arrived="0" entered="124" left="123" laneChangedFrom="0" laneChangedTo="0"/>
        </edge>
        <edge id="-125860019#4">
            <lane id="-125860019#4_0" sampledSeconds="548.22" traveltime="3.40" overlapTraveltime="4.42" density="2.31" laneDensity="2.31" occupancy="0.85" waitingTime="0.00" timeLoss="89.17" speed="4.62" speedRelative="0.83" departed="0" arrived="0" entered="124" left="124" laneChangedFrom="0" laneChangedTo="0"/>
        </edge>
        <edge id="-14389891#0">
            <lane id="-14389891#0_0" sampledSeconds="1388.75" traveltime="10.12" overlapTraveltime="11.38" density="1.21" laneDensity="1.21" occupancy="0.56" waitingTime="61.00" timeLoss="197.05" speed="7.02" speedRelative="0.84" departed="0" arrived="0" entered="122" left="122" laneChangedFrom="0" laneChangedTo="0"/>
        </edge>
        <edge id="-14389891#3">
            <lane id="-14389891#3_0" sampledSeconds="1006.13" traveltime="7.51" overlapTraveltime="8.18" density="1.17" laneDensity="1.17" occupancy="0.54" waitingTime="0.00" timeLoss="90.27" speed="7.45" speedRelative="0.89" departed="0" arrived="0" entered="123" left="123" laneChangedFrom="0" laneChangedTo="0"/>
        </edge>
        <edge id="-14389891#4">
            <lane id="-14389891#4_0" sampledSeconds="215.59" traveltime="1.08" overlapTraveltime="1.75" density="1.75" laneDensity="1.75" occupancy="0.54" waitingTime="0.00" timeLoss="20.14" speed="7.42" speedRelative="0.89" departed="0" arrived="0" entered="123" left="123" laneChangedFrom="0" laneChangedTo="0"/>
        </edge>
        <edge id="-14389891#5">
            <lane id="-14389891#5_0" sampledSeconds="250.93" traveltime="1.37" overlapTraveltime="2.04" density="1.59" laneDensity="1.59" occupancy="0.54" waitingTime="0.00" timeLoss="21.83" speed="7.48" speedRelative="0.90" departed="0" arrived="0" entered="123" left="123" laneChangedFrom="0" laneChangedTo="0"/>
        </edge>
        <edge id="-15677258#0">
            <lane id="-15677258#0_0" sampledSeconds="824.70" traveltime="2.23" overlapTraveltime="3.29" density="6.05" laneDensity="6.05" occupancy="2.04" waitingTime="98.00" timeLoss="318.69" speed="4.22" speedRelative="0.51" departed="0" arrived="0" entered="251" left="251" laneChangedFrom="0" laneChangedTo="0"/>
        </edge>
        <edge id="-15677258#1">
            <lane id="-15677258#1_0" sampledSeconds="691.31" traveltime="1.94" overlapTraveltime="2.75" density="5.68" laneDensity="5.68" occupancy="1.66" waitingTime="11.00" timeLoss="302.83" speed="4.69" speedRelative="0.56" departed="0" arrived="0" entered="251" left="251" laneChangedFrom="0" laneChangedTo="0"/>
        </edge>
        <edge id="-15677510#0">
            <lane id="-15677510#0_0" sampledSeconds="10742.88" traveltime="36.74" overlapTraveltime="37.96" density="33.19" laneDensity="33.19" occupancy="16.14" waitingTime="8192.00" timeLoss="10078.86" speed="0.69" speedRelative="0.05" departed="0" arrived="0" entered="283" left="283" laneChangedFrom="0" laneChangedTo="0"/>
        </edge>
        <edge id="-15677510#1">
            <lane id="-15677510#1_0" sampledSeconds="9252.88" traveltime="31.74" overlapTraveltime="32.70" density="19.11" laneDensity="19.11" occupancy="8.57" waitingTime="6594.00" timeLoss="8505.69" speed="1.12" speedRelative="0.08" departed="0" arrived="0" entered="283" left="283" laneChangedFrom="0" laneChangedTo="0"/>
        </edge>
        <edge id="-15677510#2">
            <lane id="-15677510#2_0" sampledSeconds="239.56" traveltime="0.08" overlapTraveltime="0.85" density="24.38" laneDensity="24.38" occupancy="1.35" waitingTime="0.00" timeLoss="124.23" speed="6.66" speedRelative="0.48" departed="0" arrived="0" entered="283" left="283" laneChangedFrom="0" laneChangedTo="0"/>
        </edge>
        <edge id="-15677510#3">
            <lane id="-15677510#3_0" sampledSeconds="2339.70" traveltime="8.71" overlapTraveltime="9.32" density="1.60" laneDensity="1.60" occupancy="0.75" waitingTime="75.00" timeLoss="462.77" speed="10.73" speedRelative="0.77" departed="0" arrived="0" entered="251" left="251" laneChangedFrom="0" laneChangedTo="0"/>
        </edge>
        <edge id="-172213041#1">
            <lane id="-172213041#1_0" sampledSeconds="5484.76" traveltime="13.36" overlapTraveltime="13.77" density="2.83" laneDensity="2.83" occupancy="1.37" waitingTime="303.00" timeLoss="1697.36" speed="9.53" speedRelative="0.69" departed="0" arrived="0" entered="257" left="579" laneChangedFrom="61" laneChangedTo="383"/>
            <lane id="-172213041#1_1" sampledSeconds="83773.77" traveltime="31.53" overlapTraveltime="33.42" density="43.23" laneDensity="43.23" occupancy="20.76" waitingTime="27575.00" timeLoss="59736.43" speed="3.93" speedRelative="0.28" departed="0" arrived="0" entered="2648" left="2326" laneChangedFrom="383" laneChangedTo="61"/>
        </edge>
        <edge id="-172213042">
            <lane id="-172213042_0" sampledSeconds="1070.48" traveltime="3.60" overlapTraveltime="3.98" density="1.47" laneDensity="1.47" occupancy="0.66" waitingTime="0.00" timeLoss="55.81" speed="13.13" speedRelative="0.94" departed="0" arrived="0" entered="378" left="259" laneChangedFrom="119" laneChangedTo="0"/>
            <lane id="-172213042_1" sampledSeconds="9251.32" traveltime="5.46" overlapTraveltime="6.48" density="12.74" laneDensity="12.74" occupancy="5.81" waitingTime="1786.00" timeLoss="3835.55" speed="8.07" speedRelative="0.58" departed="0" arrived="0" entered="1418" left="1406" laneChangedFrom="131" laneChangedTo="119"/>
            <lane id="-172213042_2" sampledSeconds="6600.97" traveltime="8.60" overlapTraveltime="10.63" density="9.09" laneDensity="9.09" occupancy="4.22" waitingTime="3163.00" timeLoss="4228.58" speed="4.92" speedRelative="0.35" departed="0" arrived="0" entered="521" left="652" laneChangedFrom="0" laneChangedTo="131"/>
        </edge>
        <edge id="-172222117#1">
            <lane id="-172222117#1_0" sampledSeconds="1957.35" traveltime="3.32" overlapTraveltime="3.70" density="3.10" laneDensity="3.10" occupancy="1.37" waitingTime="0.00" timeLoss="190.10" speed="12.49" speedRelative="0.90" departed="0" arrived="0" entered="536" left="529" laneChangedFrom="7" laneChangedTo="0"/>
            <lane id="-172222117#1_1" sampledSeconds="11609.34" traveltime="3.40" overlapTraveltime="3.79" density="18.37" laneDensity="18.37" occupancy="8.17" waitingTime="0.00" timeLoss="1333.37" speed="12.18" speedRelative="0.88" departed="0" arrived="0" entered="3057" left="3064" laneChangedFrom="0" laneChangedTo="7"/>
        </edge>
        <edge id="-172222117#1.57">
            <lane id="-172222117#1.57_0" sampledSeconds="1607.77" traveltime="2.69" overlapTraveltime="3.07" density="2.96" laneDensity="2.96" occupancy="1.30" waitingTime="0.00" timeLoss="79.57" speed="13.14" speedRelative="0.95" departed="0" arrived="0" entered="529" left="519" laneChangedFrom="10" laneChangedTo="0"/>
            <lane id="-172222117#1.57_1" sampledSeconds="16.02" traveltime="2.49" overlapTraveltime="2.85" density="0.03" laneDensity="0.03" occupancy="0.01" waitingTime="0.00" timeLoss="0.90" speed="14.17" speedRelative="1.02" departed="0" arrived="0" entered="0" left="10" laneChangedFrom="0" laneChangedTo="10"/>
        </edge>
        <edge id="-188708009">
            <lane id="-188708009_0" sampledSeconds="10375.44" traveltime="22.26" overlapTraveltime="22.89" density="7.85" laneDensity="7.85" occupancy="3.83" waitingTime="5975.00" timeLoss="7329.46" speed="3.98" speedRelative="0.29" departed="0" arrived="0" entered="427" left="540" laneChangedFrom="124" laneChangedTo="237"/>
            <lane id="-188708009_1" sampledSeconds="11174.78" traveltime="19.67" overlapTraveltime="20.45" density="8.46" laneDensity="8.46" occupancy="4.13" waitingTime="5528.00" timeLoss="7614.73" speed="4.45" speedRelative="0.32" departed="0" arrived="0" entered="573" left="460" laneChangedFrom="237" laneChangedTo="124"/>
        </edge>
        <edge id="-188708010">
            <lane id="-188708010_0" sampledSeconds="1249.78" traveltime="2.58" overlapTraveltime="2.96" density="2.42" laneDensity="2.42" occupancy="1.05" waitingTime="0.00" timeLoss="62.14" speed="13.05" speedRelative="0.94" departed="0" arrived="0" entered="418" left="426" laneChangedFrom="7" laneChangedTo="15"/>
            <lane id="-188708010_1" sampledSeconds="1757.03" traveltime="2.65" overlapTraveltime="3.04" density="3.40" laneDensity="3.40" occupancy="1.48" waitingTime="0.00" timeLoss="137.33" speed="12.74" speedRelative="0.92" departed="0" arrived="0" entered="582" left="574" laneChangedFrom="15" laneChangedTo="7"/>
        </edge>
        <edge id="-27361348#1">
            <lane id="-27361348#1_0" sampledSeconds="1695.49" traveltime="9.91" overlapTraveltime="10.41" density="0.92" laneDensity="0.92" occupancy="0.44" waitingTime="0.00" timeLoss="169.13" speed="12.06" speedRelative="0.87" departed="0" arrived="0" entered="142" left="165" laneChangedFrom="0" laneChangedTo="23"/>
            <lane id="-27361348#1_1" sampledSeconds="166947.45" traveltime="562.24" overlapTraveltime="600.30" density="90.20" laneDensity="90.20" occupancy="44.72" waitingTime="139656.00" timeLoss="164399.56" speed="0.21" speedRelative="0.02" departed="0" arrived="0" entered="286" left="284" laneChangedFrom="39" laneChangedTo="49"/>
            <lane id="-27361348#1_2" sampledSeconds="166020.93" traveltime="547.18" overlapTraveltime="586.16" density="89.70" laneDensity="89.70" occupancy="44.49" waitingTime="138558.00" timeLoss="163450.61" speed="0.21" speedRelative="0.02" departed="0" arrived="0" entered="307" left="262" laneChangedFrom="49" laneChangedTo="16"/>
        </edge>
        <edge id="-28674458#0">
            <lane id="-28674458#0_0" sampledSeconds="877.99" traveltime="15.40" overlapTraveltime="27.44" density="23.92" laneDensity="23.92" occupancy="5.42" waitingTime="754.00" timeLoss="833.76" speed="0.27" speedRelative="0.02" departed="0" arrived="0" entered="32" left="32" laneChangedFrom="0" laneChangedTo="0"/>
        </edge>
        <edge id="-28674458#1">
            <lane id="-28674458#1_0" sampledSeconds="1964.18" traveltime="34.90" overlapTraveltime="61.38" density="2.35" laneDensity="2.35" occupancy="0.85" waitingTime="1583.00" timeLoss="1805.82" speed="0.97" speedRelative="0.07" departed="0" arrived="0" entered="32" left="32" laneChangedFrom="0" laneChangedTo="0"/>
        </edge>
        <edge id="-28674458#2">
            <lane id="-28674458#2_0" sampledSeconds="43.11" traveltime="0.90" overlapTraveltime="1.35" density="0.32" laneDensity="0.32" occupancy="0.10" waitingTime="0.00" timeLoss="11.63" speed="10.18" speedRelative="0.73" departed="0" arrived="0" entered="32" left="32" laneChangedFrom="0" laneChangedTo="0"/>
        </edge>
        <edge id="-313458176#4">
            <lane id="-313458176#4_0" sampledSeconds="338.44" traveltime="2.97" overlapTraveltime="3.35" density="0.58" laneDensity="0.58" occupancy="0.26" waitingTime="0.00" timeLoss="24.42" speed="12.75" speedRelative="0.92" departed="0" arrived="0" entered="101" left="101" laneChangedFrom="0" laneChangedTo="0"/>
            <lane id="-313458176#4_1" sampledSeconds="5721.04" traveltime="3.12" overlapTraveltime="3.55" density="9.87" laneDensity="9.87" occupancy="4.34" waitingTime="0.00" timeLoss="722.88" speed="12.03" speedRelative="0.87" departed="0" arrived="0" entered="1610" left="1610" laneChangedFrom="0" laneChangedTo="0"/>
        </edge>
        <edge id="-313458176#4.40">
            <lane id="-313458176#4.40_0" sampledSeconds="2981.91" traveltime="29.86" overlapTraveltime="30.75" density="1.14" laneDensity="1.14" occupancy="0.56" waitingTime="1420.00" timeLoss="1744.85" speed="5.70" speedRelative="0.41" departed="0" arrived="0" entered="101" left="83" laneChangedFrom="18" laneChangedTo="0"/>
            <lane id="-313458176#4.40_1" sampledSeconds="553.45" traveltime="145.40" overlapTraveltime="136.96" density="0.21" laneDensity="0.21" occupancy="0.10" waitingTime="410.00" timeLoss="502.42" speed="1.28" speedRelative="0.09" departed="0" arrived="0" entered="0" left="18" laneChangedFrom="0" laneChangedTo="18"/>
        </edge>
        <edge id="-35162767#0">
            <lane id="-35162767#0_0" sampledSeconds="2979.62" traveltime="2.79" overlapTraveltime="3.20" density="5.67" laneDensity="5.67" occupancy="2.47" waitingTime="1.00" timeLoss="339.33" speed="12.24" speedRelative="0.88" departed="0" arrived="0" entered="930" left="930" laneChangedFrom="0" laneChangedTo="0"/>
        </edge>
        <edge id="-35162767#1">
            <lane id="-35162767#1_0" sampledSeconds="6081.36" traveltime="6.14" overlapTraveltime="6.54" density="5.17" laneDensity="5.17" occupancy="2.43" waitingTime="0.00" timeLoss="583.95" speed="12.48" speedRelative="0.90" departed="0" arrived="0" entered="930" left="930" laneChangedFrom="0" laneChangedTo="0"/>
        </edge>
        <edge id="-35162769#0">
            <lane id="-35162769#0_0" sampledSeconds="4979.25" traveltime="4.91" overlapTraveltime="5.35" density="5.74" laneDensity="5.74" occupancy="2.65" waitingTime="144.00" timeLoss="841.38" speed="11.48" speedRelative="0.83" departed="0" arrived="0" entered="930" left="930" laneChangedFrom="0" laneChangedTo="0"/>
        </edge>
        <edge id="-35162769#1">
            <lane id="-35162769#1_0" sampledSeconds="2106.14" traveltime="1.87" overlapTraveltime="2.26" density="5.79" laneDensity="5.79" occupancy="2.39" waitingTime="0.00" timeLoss="173.56" speed="12.67" speedRelative="0.91" departed="0" arrived="0" entered="930" left="930" laneChangedFrom="0" laneChangedTo="0"/>
        </edge>
        <edge id="-35162769#2">
            <lane id="-35162769#2_0" sampledSeconds="2357.12" traveltime="2.14" overlapTraveltime="2.53" density="5.63" laneDensity="5.63" occupancy="2.38" waitingTime="0.00" timeLoss="185.50" speed="12.72" speedRelative="0.92" departed="0" arrived="0" entered="930" left="930" laneChangedFrom="0" laneChangedTo="0"/>
        </edge>
        <edge id="-4398888#0">
            <lane id="-4398888#0_0" sampledSeconds="3361.88" traveltime="7.23" overlapTraveltime="9.75" density="2.96" laneDensity="2.96" occupancy="1.17" waitingTime="981.00" timeLoss="1346.61" speed="8.09" speedRelative="0.58" departed="0" arrived="0" entered="467" left="289" laneChangedFrom="252" laneChangedTo="74"/>
            <lane id="-4398888#0_1" sampledSeconds="6604.96" traveltime="7.33" overlapTraveltime="9.66" density="5.82" laneDensity="5.82" occupancy="2.36" waitingTime="1807.00" timeLoss="2743.62" speed="8.17" speedRelative="0.59" departed="0" arrived="0" entered="562" left="740" laneChangedFrom="74" laneChangedTo="252"/>
        </edge>
        <edge id="-4398888#0.74">
            <lane id="-4398888#0.74_0" sampledSeconds="5539.01" traveltime="16.81" overlapTraveltime="17.32" density="17.88" laneDensity="17.88" occupancy="8.23" waitingTime="4200.00" timeLoss="4940.48" speed="1.45" speedRelative="0.10" departed="0" arrived="0" entered="288" left="352" laneChangedFrom="27" laneChangedTo="91"/>
            <lane id="-4398888#0.74_1" sampledSeconds="8530.74" traveltime="11.19" overlapTraveltime="12.04" density="27.54" laneDensity="27.54" occupancy="12.46" waitingTime="5858.00" timeLoss="7215.15" speed="2.09" speedRelative="0.15" departed="0" arrived="0" entered="741" left="677" laneChangedFrom="91" laneChangedTo="27"/>
        </edge>
        <edge id="-4398888#2">
            <lane id="-4398888#2_0" sampledSeconds="877.64" traveltime="1.45" overlapTraveltime="1.86" density="3.38" laneDensity="3.38" occupancy="1.30" waitingTime="0.00" timeLoss="111.22" speed="11.78" speedRelative="0.85" departed="0" arrived="0" entered="472" left="467" laneChangedFrom="24" laneChangedTo="19"/>
            <lane id="-4398888#2_1" sampledSeconds="998.11" traveltime="1.40" overlapTraveltime="1.80" density="3.84" laneDensity="3.84" occupancy="1.48" waitingTime="0.00" timeLoss="134.58" speed="12.21" speedRelative="0.88" departed="0" arrived="0" entered="557" left="562" laneChangedFrom="19" laneChangedTo="24"/>
        </edge>
        <edge id="-46656282#2">
            <lane id="-46656282#2_0" sampledSeconds="20494.42" traveltime="15.13" overlapTraveltime="15.31" density="33.50" laneDensity="33.50" occupancy="16.12" waitingTime="9666.00" timeLoss="15554.96" speed="2.93" speedRelative="0.21" departed="0" arrived="0" entered="0" left="1981" laneChangedFrom="0" laneChangedTo="1983"/>
            <lane id="-46656282#2_1" sampledSeconds="8925.12" traveltime="12.31" overlapTraveltime="13.85" density="14.59" laneDensity="14.59" occupancy="6.94" waitingTime="4273.00" timeLoss="6857.92" speed="3.24" speedRelative="0.23" departed="0" arrived="0" entered="1983" left="0" laneChangedFrom="1983" laneChangedTo="0"/>
        </edge>
        <edge id="-4727535">
            <lane id="-4727535_0" sampledSeconds="226.31" traveltime="0.03" overlapTraveltime="0.88" density="122.82" laneDensity="122.82" occupancy="1.43" waitingTime="0.00" timeLoss="101.49" speed="5.84" speedRelative="0.42" departed="0" arrived="0" entered="258" left="258" laneChangedFrom="0" laneChangedTo="0"/>
            <lane id="-4727535_1" sampledSeconds="919.15" traveltime="0.02" overlapTraveltime="0.65" density="133.33" laneDensity="133.33" occupancy="5.84" waitingTime="0.00" timeLoss="299.29" speed="7.84" speedRelative="0.56" departed="0" arrived="0" entered="1407" left="1407" laneChangedFrom="0" laneChangedTo="0"/>
            <lane id="-4727535_2" sampledSeconds="564.49" traveltime="0.03" overlapTraveltime="0.87" density="133.33" laneDensity="133.33" occupancy="3.58" waitingTime="0.00" timeLoss="259.67" speed="5.91" speedRelative="0.43" departed="0" arrived="0" entered="652" left="652" laneChangedFrom="0" laneChangedTo="0"/>
        </edge>
        <edge id="-550432837#1">
            <lane id="-550432837#1_0" sampledSeconds="1570.85" traveltime="3.63" overlapTraveltime="4.03" density="3.02" laneDensity="3.02" occupancy="1.28" waitingTime="0.00" timeLoss="469.43" speed="9.66" speedRelative="0.70" departed="0" arrived="0" entered="390" left="390" laneChangedFrom="0" laneChangedTo="0"/>
        </edge>
        <edge id="-550432840#0">
            <lane id="-550432840#0_0" sampledSeconds="1765.65" traveltime="1.50" overlapTraveltime="1.90" density="6.10" laneDensity="6.10" occupancy="2.41" waitingTime="0.00" timeLoss="159.66" speed="12.56" speedRelative="0.90" departed="0" arrived="0" entered="930" left="930" laneChangedFrom="0" laneChangedTo="0"/>
        </edge>
        <edge id="-550432840#2">
            <lane id="-550432840#2_0" sampledSeconds="2062.95" traveltime="1.82" overlapTraveltime="2.22" density="5.91" laneDensity="5.91" occupancy="2.42" waitingTime="0.00" timeLoss="195.02" speed="12.51" speedRelative="0.90" departed="0" arrived="0" entered="930" left="930" laneChangedFrom="0" laneChangedTo="0"/>
        </edge>
        <edge id="-550432841#1">
            <lane id="-550432841#1_0" sampledSeconds="4535.45" traveltime="10.57" overlapTraveltime="11.63" density="8.31" laneDensity="8.31" occupancy="3.90" waitingTime="1907.00" timeLoss="3173.02" speed="3.49" speedRelative="0.25" departed="0" arrived="0" entered="390" left="390" laneChangedFrom="0" laneChangedTo="0"/>
            <lane id="-550432841#1_1" sampledSeconds="5979.04" traveltime="10.31" overlapTraveltime="11.07" density="10.95" laneDensity="10.95" occupancy="5.19" waitingTime="2623.00" timeLoss="4396.36" speed="3.66" speedRelative="0.26" departed="0" arrived="0" entered="540" left="540" laneChangedFrom="0" laneChangedTo="0"/>
        </edge>
        <edge id="-565560611#2">
            <lane id="-565560611#2_0" sampledSeconds="8870.87" traveltime="20.85" overlapTraveltime="21.74" density="11.88" laneDensity="11.88" occupancy="5.78" waitingTime="5698.00" timeLoss="7276.06" speed="2.47" speedRelative="0.18" departed="0" arrived="0" entered="408" left="408" laneChangedFrom="0" laneChangedTo="0"/>
        </edge>
        <edge id="-565560611#3">
            <lane id="-565560611#3_0" sampledSeconds="852.24" traveltime="1.70" overlapTraveltime="2.09" density="2.54" laneDensity="2.54" occupancy="1.03" waitingTime="0.00" timeLoss="54.98" speed="12.84" speedRelative="0.92" departed="0" arrived="0" entered="408" left="408" laneChangedFrom="0" laneChangedTo="0"/>
        </edge>
        <edge id="-582263960#2">
            <lane id="-582263960#2_0" sampledSeconds="7909.67" traveltime="14.68" overlapTraveltime="15.06" density="3.10" laneDensity="3.10" occupancy="1.45" waitingTime="0.00" timeLoss="1356.18" speed="11.38" speedRelative="0.82" departed="0" arrived="0" entered="1064" left="588" laneChangedFrom="780" laneChangedTo="304"/>
            <lane id="-582263960#2_1" sampledSeconds="24204.39" traveltime="14.07" overlapTraveltime="14.47" density="9.48" laneDensity="9.48" occupancy="4.59" waitingTime="4.00" timeLoss="3382.62" speed="11.84" speedRelative="0.85" departed="0" arrived="0" entered="1134" left="1610" laneChangedFrom="304" laneChangedTo="780"/>
        </edge>
        <edge id="-582263960#2.366">
            <lane id="-582263960#2.366_0" sampledSeconds="4285.32" traveltime="6.44" overlapTraveltime="7.29" density="4.20" laneDensity="4.20" occupancy="1.92" waitingTime="200.00" timeLoss="952.25" speed="9.81" speedRelative="0.71" departed="0" arrived="0" entered="588" left="588" laneChangedFrom="0" laneChangedTo="0"/>
            <lane id="-582263960#2.366_1" sampledSeconds="10951.17" traveltime="6.32" overlapTraveltime="6.80" density="10.73" laneDensity="10.73" occupancy="5.02" waitingTime="637.00" timeLoss="2599.40" speed="10.51" speedRelative="0.76" departed="0" arrived="0" entered="1610" left="1610" laneChangedFrom="0" laneChangedTo="0"/>
        </edge>
        <edge id="-601718666#2">
            <lane id="-601718666#2_0" sampledSeconds="101401.40" traveltime="246.84" overlapTraveltime="247.93" density="86.20" laneDensity="86.20" occupancy="42.96" waitingTime="88791.00" timeLoss="98972.53" speed="0.33" speedRelative="0.02" departed="0" arrived="0" entered="402" left="408" laneChangedFrom="38" laneChangedTo="52"/>
            <lane id="-601718666#2_1" sampledSeconds="99367.59" traveltime="294.60" overlapTraveltime="296.22" density="84.47" laneDensity="84.47" occupancy="42.11" waitingTime="87700.00" timeLoss="97372.79" speed="0.28" speedRelative="0.02" departed="0" arrived="0" entered="349" left="327" laneChangedFrom="52" laneChangedTo="38"/>
        </edge>
        <edge id="-651999512#0">
            <lane id="-651999512#0_0" sampledSeconds="1221.33" traveltime="0.91" overlapTraveltime="1.31" density="6.96" laneDensity="6.96" occupancy="2.42" waitingTime="0.00" timeLoss="114.98" speed="12.51" speedRelative="0.90" departed="0" arrived="0" entered="930" left="930" laneChangedFrom="0" laneChangedTo="0"/>
        </edge>
        <edge id="-651999512#1">
            <lane id="-651999512#1_0" sampledSeconds="3982.44" traveltime="3.88" overlapTraveltime="4.28" density="5.32" laneDensity="5.32" occupancy="2.41" waitingTime="0.00" timeLoss="365.09" speed="12.54" speedRelative="0.90" departed="0" arrived="0" entered="930" left="930" laneChangedFrom="0" laneChangedTo="0"/>
        </edge>
        <edge id="-792703544#0">
            <lane id="-792703544#0_0" sampledSeconds="41.72" traveltime="0.56" overlapTraveltime="1.30" density="0.81" laneDensity="0.81" occupancy="0.17" waitingTime="0.00" timeLoss="15.55" speed="6.42" speedRelative="0.46" departed="0" arrived="0" entered="32" left="32" laneChangedFrom="0" laneChangedTo="0"/>
        </edge>
        <edge id="-792703544#1">
            <lane id="-792703544#1_0" sampledSeconds="83.00" traveltime="1.76" overlapTraveltime="2.59" density="0.38" laneDensity="0.38" occupancy="0.14" waitingTime="0.00" timeLoss="35.28" speed="7.41" speedRelative="0.53" departed="0" arrived="0" entered="32" left="32" laneChangedFrom="0" laneChangedTo="0"/>
        </edge>
        <edge id="-792703544#2">
            <lane id="-792703544#2_0" sampledSeconds="111.44" traveltime="2.94" overlapTraveltime="3.48" density="0.21" laneDensity="0.21" occupancy="0.09" waitingTime="0.00" timeLoss="21.87" speed="11.20" speedRelative="0.81" departed="0" arrived="0" entered="32" left="32" laneChangedFrom="0" laneChangedTo="0"/>
        </edge>
        <edge id="-821493797#0">