<?xml version="1.0" encoding="UTF-8"?>

<!-- generated on 2025-12-03 15:40:29 by Eclipse SUMO GUI Version 1.24.0
<sumoConfiguration xmlns:xsi="http://www.w3.org/2001/XMLSchema-instance" xsi:noNamespaceSchemaLocation="http://sumo.dlr.de/xsd/sumoConfiguration.xsd">

    <input>
        <net-file value="C:\Users\laebli\OneDrive - ETH Zurich\Microscopic\SUMO\251128_SUMO_V0_morning\Bellevue_V0.net.xml"/>
        <route-files value="C:\Users\laebli\OneDrive - ETH Zurich\Microscopic\SUMO\251128_SUMO_V0_morning\demand_morning.xml"/>
        <additional-files value="C:\Users\laebli\OneDrive - ETH Zurich\Microscopic\SUMO\251128_SUMO_V0_morning\detectors.add.xml"/>
    </input>

    <output>
        <lanedata-output value="C:\Users\laebli\OneDrive - ETH Zurich\Microscopic\SUMO\251128_SUMO_V0_morning\Output_LaneData_V0_morning.xml"/>
    </output>

</sumoConfiguration>
-->

<meandata xmlns:xsi="http://www.w3.org/2001/XMLSchema-instance" xsi:noNamespaceSchemaLocation="http://sumo.dlr.de/xsd/meandata_file.xsd">
    <interval begin="0.00" end="14922.00" id="DEFAULT_LANEDATA">
        <edge id="-10594647#1">
            <lane id="-10594647#1_0" sampledSeconds="9285.64" traveltime="121.49" overlapTraveltime="123.28" density="20.47" laneDensity="20.47" occupancy="10.16" waitingTime="8651.00" timeLoss="9075.19" speed="0.29" speedRelative="0.02" departed="0" arrived="0" entered="76" left="76" laneChangedFrom="0" laneChangedTo="0" teleported="4"/>
        </edge>
        <edge id="-10750844#2">
            <lane id="-10750844#2_0" sampledSeconds="2611.80" traveltime="7.26" overlapTraveltime="7.75" density="6.08" laneDensity="6.08" occupancy="2.87" waitingTime="1512.00" timeLoss="1788.47" speed="4.36" speedRelative="0.31" departed="0" arrived="0" entered="339" left="335" laneChangedFrom="0" laneChangedTo="0"/>
        </edge>
        <edge id="-1163569502#1">
            <lane id="-1163569502#1_0" sampledSeconds="14714.54" traveltime="29.13" overlapTraveltime="35.12" density="20.52" laneDensity="20.52" occupancy="9.32" waitingTime="10862.00" timeLoss="12018.47" speed="1.51" speedRelative="0.18" departed="0" arrived="0" entered="419" left="419" laneChangedFrom="0" laneChangedTo="0"/>
        </edge>
        <edge id="-11667106#10">
            <lane id="-11667106#10_0" sampledSeconds="11375.00" traveltime="22.21" overlapTraveltime="22.95" density="18.09" laneDensity="18.09" occupancy="8.77" waitingTime="7692.00" timeLoss="8540.39" speed="2.05" speedRelative="0.25" departed="0" arrived="0" entered="496" left="496" laneChangedFrom="0" laneChangedTo="0" teleported="1"/>
        </edge>
        <edge id="-11667106#2">
            <lane id="-11667106#2_0" sampledSeconds="1836.86" traveltime="24.01" overlapTraveltime="25.16" density="1.31" laneDensity="1.31" occupancy="0.63" waitingTime="682.00" timeLoss="974.56" speed="3.93" speedRelative="0.47" departed="0" arrived="0" entered="73" left="73" laneChangedFrom="0" laneChangedTo="0"/>
        </edge>
        <edge id="-11667106#5">
            <lane id="-11667106#5_0" sampledSeconds="4167.02" traveltime="7.97" overlapTraveltime="8.77" density="5.18" laneDensity="5.18" occupancy="2.37" waitingTime="70.00" timeLoss="702.89" speed="6.71" speedRelative="0.81" departed="0" arrived="0" entered="475" left="475" laneChangedFrom="0" laneChangedTo="0"/>
        </edge>
        <edge id="-11667106#8">
            <lane id="-11667106#8_0" sampledSeconds="12153.52" traveltime="23.34" overlapTraveltime="24.56" density="19.52" laneDensity="19.52" occupancy="9.27" waitingTime="8343.00" timeLoss="9346.59" speed="1.90" speedRelative="0.23" departed="0" arrived="0" entered="496" left="496" laneChangedFrom="0" laneChangedTo="0" teleported="1"/>
        </edge>
        <edge id="-1168931395#1">
            <lane id="-1168931395#1_0" sampledSeconds="28947.61" traveltime="19.69" overlapTraveltime="27.72" density="83.15" laneDensity="83.15" occupancy="32.46" waitingTime="21695.00" timeLoss="26774.78" speed="1.02" speedRelative="0.07" departed="0" arrived="0" entered="993" left="1100" laneChangedFrom="29" laneChangedTo="148"/>
            <lane id="-1168931395#1_1" sampledSeconds="32564.50" traveltime="17.54" overlapTraveltime="24.36" density="93.54" laneDensity="93.54" occupancy="36.93" waitingTime="22899.00" timeLoss="29847.75" speed="1.16" speedRelative="0.08" departed="0" arrived="0" entered="1405" left="1284" laneChangedFrom="148" laneChangedTo="29"/>
        </edge>
        <edge id="-1168931399#2">
            <lane id="-1168931399#2_0" sampledSeconds="8441.14" traveltime="30.92" overlapTraveltime="32.02" density="33.61" laneDensity="33.61" occupancy="13.35" waitingTime="6973.00" timeLoss="7781.31" speed="0.68" speedRelative="0.08" departed="0" arrived="0" entered="266" left="263" laneChangedFrom="0" laneChangedTo="0" teleported="2"/>
        </edge>
        <edge id="-1168931401#1">
            <lane id="-1168931401#1_0" sampledSeconds="879.12" traveltime="2.16" overlapTraveltime="2.57" density="2.61" laneDensity="2.61" occupancy="1.06" waitingTime="0.00" timeLoss="195.91" speed="10.74" speedRelative="0.77" departed="0" arrived="0" entered="342" left="342" laneChangedFrom="0" laneChangedTo="0"/>
        </edge>
        <edge id="-125860019#2">
            <lane id="-125860019#2_0" sampledSeconds="7484.61" traveltime="33.63" overlapTraveltime="34.97" density="34.45" laneDensity="34.45" occupancy="16.69" waitingTime="6101.00" timeLoss="6817.92" speed="0.56" speedRelative="0.10" departed="0" arrived="0" entered="215" left="213" laneChangedFrom="0" laneChangedTo="0"/>
        </edge>
        <edge id="-125860019#4">
            <lane id="-125860019#4_0" sampledSeconds="1105.91" traveltime="4.09" overlapTraveltime="5.14" density="4.80" laneDensity="4.80" occupancy="1.84" waitingTime="133.00" timeLoss="312.37" speed="3.97" speedRelative="0.71" departed="0" arrived="0" entered="215" left="215" laneChangedFrom="0" laneChangedTo="0"/>
        </edge>
        <edge id="-14389891#0">
            <lane id="-14389891#0_0" sampledSeconds="13060.81" traveltime="42.00" overlapTraveltime="48.13" density="11.68" laneDensity="11.68" occupancy="5.55" waitingTime="9527.00" timeLoss="10449.07" speed="1.66" speedRelative="0.20" departed="0" arrived="0" entered="276" left="267" laneChangedFrom="0" laneChangedTo="0"/>
        </edge>
        <edge id="-14389891#3">
            <lane id="-14389891#3_0" sampledSeconds="38181.79" traveltime="88.36" overlapTraveltime="91.21" density="45.77" laneDensity="45.77" occupancy="21.75" waitingTime="31812.00" timeLoss="35003.71" speed="0.67" speedRelative="0.08" departed="0" arrived="0" entered="419" left="417" laneChangedFrom="0" laneChangedTo="0" teleported="1"/>
        </edge>
        <edge id="-14389891#4">
            <lane id="-14389891#4_0" sampledSeconds="7117.74" traveltime="8.87" overlapTraveltime="16.99" density="59.55" laneDensity="59.55" occupancy="17.33" waitingTime="5810.00" timeLoss="6456.55" speed="0.77" speedRelative="0.09" departed="0" arrived="0" entered="419" left="419" laneChangedFrom="0" laneChangedTo="0"/>
        </edge>
        <edge id="-14389891#5">
            <lane id="-14389891#5_0" sampledSeconds="6753.90" traveltime="15.35" overlapTraveltime="16.12" density="44.16" laneDensity="44.16" occupancy="15.35" waitingTime="5635.00" timeLoss="5978.88" speed="0.95" speedRelative="0.11" departed="0" arrived="0" entered="419" left="419" laneChangedFrom="0" laneChangedTo="0"/>
        </edge>
        <edge id="-15677258#0">
            <lane id="-15677258#0_0" sampledSeconds="154.04" traveltime="2.54" overlapTraveltime="3.67" density="1.16" laneDensity="1.16" occupancy="0.40" waitingTime="20.00" timeLoss="66.62" speed="3.78" speedRelative="0.45" departed="0" arrived="0" entered="42" left="42" laneChangedFrom="0" laneChangedTo="0"/>
        </edge>
        <edge id="-15677258#1">
            <lane id="-15677258#1_0" sampledSeconds="117.50" traveltime="1.96" overlapTraveltime="2.80" density="0.99" laneDensity="0.99" occupancy="0.30" waitingTime="4.00" timeLoss="50.50" speed="4.62" speedRelative="0.55" departed="0" arrived="0" entered="42" left="42" laneChangedFrom="0" laneChangedTo="0"/>
        </edge>
        <edge id="-15677510#0">
            <lane id="-15677510#0_0" sampledSeconds="30410.94" traveltime="135.93" overlapTraveltime="137.47" density="96.68" laneDensity="96.68" occupancy="47.95" waitingTime="28277.00" timeLoss="29889.96" speed="0.19" speedRelative="0.01" departed="0" arrived="0" entered="228" left="225" laneChangedFrom="0" laneChangedTo="0" teleported="2"/>
        </edge>
        <edge id="-15677510#1">
            <lane id="-15677510#1_0" sampledSeconds="43077.84" traveltime="189.41" overlapTraveltime="190.84" density="91.53" laneDensity="91.53" occupancy="38.80" waitingTime="39926.00" timeLoss="42474.45" speed="0.19" speedRelative="0.01" departed="0" arrived="0" entered="231" left="228" laneChangedFrom="0" laneChangedTo="0" teleported="1"/>
        </edge>
        <edge id="-15677510#2">
            <lane id="-15677510#2_0" sampledSeconds="268.70" traveltime="0.09" overlapTraveltime="1.18" density="28.14" laneDensity="28.14" occupancy="1.52" waitingTime="0.00" timeLoss="175.14" speed="4.76" speedRelative="0.34" departed="0" arrived="0" entered="231" left="231" laneChangedFrom="0" laneChangedTo="0"/>
        </edge>
        <edge id="-15677510#3">
            <lane id="-15677510#3_0" sampledSeconds="572.07" traveltime="13.27" overlapTraveltime="13.95" density="0.40" laneDensity="0.40" occupancy="0.19" waitingTime="174.00" timeLoss="257.68" speed="7.17" speedRelative="0.52" departed="0" arrived="0" entered="41" left="41" laneChangedFrom="0" laneChangedTo="0"/>
        </edge>
        <edge id="-172213041#1">
            <lane id="-172213041#1_0" sampledSeconds="92669.48" traveltime="72.36" overlapTraveltime="73.06" density="49.21" laneDensity="49.21" occupancy="24.42" waitingTime="70288.00" timeLoss="80582.91" speed="1.80" speedRelative="0.13" departed="0" arrived="0" entered="1428" left="1184" laneChangedFrom="262" laneChangedTo="35"/>
            <lane id="-172213041#1_1" sampledSeconds="125310.67" traveltime="79.51" overlapTraveltime="80.51" density="66.54" laneDensity="66.54" occupancy="32.91" waitingTime="88029.00" timeLoss="110285.69" speed="1.63" speedRelative="0.12" departed="0" arrived="0" entered="1413" left="1624" laneChangedFrom="35" laneChangedTo="262"/>
        </edge>
        <edge id="-172213042">
            <lane id="-172213042_0" sampledSeconds="47678.82" traveltime="39.55" overlapTraveltime="47.62" density="67.57" laneDensity="67.57" occupancy="32.13" waitingTime="38700.00" timeLoss="43858.89" speed="1.10" speedRelative="0.08" departed="0" arrived="0" entered="1133" left="947" laneChangedFrom="183" laneChangedTo="2"/>
            <lane id="-172213042_1" sampledSeconds="45921.11" traveltime="97.61" overlapTraveltime="115.68" density="65.08" laneDensity="65.08" occupancy="30.90" waitingTime="39251.00" timeLoss="44443.89" speed="0.45" speedRelative="0.03" departed="0" arrived="0" entered="273" left="447" laneChangedFrom="3" laneChangedTo="183"/>
            <lane id="-172213042_2" sampledSeconds="15120.10" traveltime="21.15" overlapTraveltime="27.06" density="21.43" laneDensity="21.43" occupancy="10.09" waitingTime="11231.00" timeLoss="12988.27" speed="1.93" speedRelative="0.14" departed="0" arrived="0" entered="558" left="559" laneChangedFrom="0" laneChangedTo="1"/>
        </edge>
        <edge id="-172222117#1">
            <lane id="-172222117#1_0" sampledSeconds="115475.67" traveltime="107.50" overlapTraveltime="108.34" density="91.70" laneDensity="91.70" occupancy="44.91" waitingTime="93757.55" timeLoss="108510.47" speed="0.83" speedRelative="0.06" departed="0" arrived="0" entered="1151" left="1060" laneChangedFrom="77" laneChangedTo="30"/>
            <lane id="-172222117#1_1" sampledSeconds="115004.00" traveltime="143.67" overlapTraveltime="144.44" density="91.33" laneDensity="91.33" occupancy="44.60" waitingTime="95224.00" timeLoss="109916.91" speed="0.62" speedRelative="0.04" departed="0" arrived="0" entered="772" left="808" laneChangedFrom="30" laneChangedTo="77"/>
        </edge>
        <edge id="-188708009">
            <lane id="-188708009_0" sampledSeconds="118179.50" traveltime="101.00" overlapTraveltime="101.65" density="92.02" laneDensity="92.02" occupancy="45.41" waitingTime="90556.00" timeLoss="110442.26" speed="0.90" speedRelative="0.06" departed="0" arrived="0" entered="1165" left="1188" laneChangedFrom="199" laneChangedTo="234"/>
            <lane id="-188708009_1" sampledSeconds="117815.62" traveltime="90.28" overlapTraveltime="91.13" density="91.73" laneDensity="91.73" occupancy="45.04" waitingTime="89036.58" timeLoss="109350.72" speed="1.00" speedRelative="0.07" departed="0" arrived="0" entered="1302" left="1261" laneChangedFrom="234" laneChangedTo="205"/>
            <lane id="-188708009_2" sampledSeconds="205.05" traveltime="35.17" overlapTraveltime="37.22" density="0.16" laneDensity="0.16" occupancy="0.08" waitingTime="134.00" timeLoss="164.18" speed="2.45" speedRelative="0.18" departed="0" arrived="0" entered="6" left="0" laneChangedFrom="6" laneChangedTo="0"/>
        </edge>
        <edge id="-188708010">
            <lane id="-188708010_0" sampledSeconds="50136.04" traveltime="42.13" overlapTraveltime="43.03" density="99.70" laneDensity="99.70" occupancy="45.12" waitingTime="39440.00" timeLoss="46834.39" speed="0.90" speedRelative="0.06" departed="0" arrived="0" entered="1137" left="1168" laneChangedFrom="18" laneChangedTo="60"/>
            <lane id="-188708010_1" sampledSeconds="50990.89" traveltime="40.75" overlapTraveltime="41.78" density="101.40" laneDensity="101.40" occupancy="45.88" waitingTime="38975.00" timeLoss="47598.93" speed="0.93" speedRelative="0.07" departed="0" arrived="0" entered="1255" left="1208" laneChangedFrom="60" laneChangedTo="18"/>
        </edge>
        <edge id="-27361348#1">
            <lane id="-27361348#1_0" sampledSeconds="14855.42" traveltime="62.89" overlapTraveltime="67.02" density="8.26" laneDensity="8.26" occupancy="4.09" waitingTime="10793.00" timeLoss="12804.34" speed="1.87" speedRelative="0.13" departed="0" arrived="0" entered="223" left="190" laneChangedFrom="0" laneChangedTo="14"/>
            <lane id="-27361348#1_1" sampledSeconds="161498.20" traveltime="226.43" overlapTraveltime="243.75" density="89.79" laneDensity="89.79" occupancy="44.57" waitingTime="130683.00" timeLoss="155424.72" speed="0.52" speedRelative="0.04" departed="0" arrived="0" entered="669" left="658" laneChangedFrom="70" laneChangedTo="70"/>
            <lane id="-27361348#1_2" sampledSeconds="161370.48" traveltime="212.79" overlapTraveltime="228.57" density="89.72" laneDensity="89.72" occupancy="44.54" waitingTime="130033.00" timeLoss="154977.49" speed="0.55" speedRelative="0.04" departed="0" arrived="0" entered="719" left="697" laneChangedFrom="70" laneChangedTo="59"/>
        </edge>
        <edge id="-30748799">
            <lane id="-30748799_0" sampledSeconds="18761.36" traveltime="29.65" overlapTraveltime="31.90" density="22.90" laneDensity="22.90" occupancy="11.23" waitingTime="14690.00" timeLoss="16216.58" speed="1.88" speedRelative="0.14" departed="0" arrived="0" entered="589" left="588" laneChangedFrom="0" laneChangedTo="0"/>
        </edge>
        <edge id="-313458176#4">
            <lane id="-313458176#4_0" sampledSeconds="323435.63" traveltime="415.51" overlapTraveltime="416.67" density="100.32" laneDensity="100.32" occupancy="50.04" waitingTime="261648.00" timeLoss="310912.23" speed="0.53" speedRelative="0.04" departed="0" arrived="0" entered="754" left="752" laneChangedFrom="89" laneChangedTo="116" teleported="1"/>
            <lane id="-313458176#4_1" sampledSeconds="321542.78" traveltime="469.49" overlapTraveltime="470.41" density="99.74" laneDensity="99.74" occupancy="49.74" waitingTime="261471.00" timeLoss="310668.26" speed="0.47" speedRelative="0.03" departed="0" arrived="0" entered="736" left="680" laneChangedFrom="116" laneChangedTo="89"/>
        </edge>
        <edge id="-35162767#0">
            <lane id="-35162767#0_0" sampledSeconds="3119.39" traveltime="3.47" overlapTraveltime="3.94" density="6.11" laneDensity="6.11" occupancy="2.71" waitingTime="379.00" timeLoss="877.33" speed="9.95" speedRelative="0.72" departed="0" arrived="0" entered="793" left="791" laneChangedFrom="0" laneChangedTo="0"/>
        </edge>
        <edge id="-35162767#1">
            <lane id="-35162767#1_0" sampledSeconds="5305.68" traveltime="6.24" overlapTraveltime="6.69" density="4.64" laneDensity="4.64" occupancy="2.17" waitingTime="93.00" timeLoss="628.11" speed="12.21" speedRelative="0.88" departed="0" arrived="0" entered="795" left="793" laneChangedFrom="0" laneChangedTo="0"/>
        </edge>
        <edge id="-35162769#0">
            <lane id="-35162769#0_0" sampledSeconds="3937.94" traveltime="4.54" overlapTraveltime="4.95" density="4.67" laneDensity="4.67" occupancy="2.15" waitingTime="28.00" timeLoss="405.36" speed="12.42" speedRelative="0.89" departed="0" arrived="0" entered="796" left="796" laneChangedFrom="0" laneChangedTo="0"/>
        </edge>
        <edge id="-35162769#1">
            <lane id="-35162769#1_0" sampledSeconds="1795.13" traveltime="1.86" overlapTraveltime="2.26" density="5.08" laneDensity="5.08" occupancy="2.10" waitingTime="0.00" timeLoss="145.25" speed="12.73" speedRelative="0.92" departed="0" arrived="0" entered="796" left="796" laneChangedFrom="0" laneChangedTo="0"/>
        </edge>
        <edge id="-35162769#2">
            <lane id="-35162769#2_0" sampledSeconds="2010.60" traveltime="2.13" overlapTraveltime="2.53" density="4.94" laneDensity="4.94" occupancy="2.09" waitingTime="0.00" timeLoss="156.64" speed="12.77" speedRelative="0.92" departed="0" arrived="0" entered="796" left="796" laneChangedFrom="0" laneChangedTo="0"/>
        </edge>
        <edge id="-4398888#0">
            <lane id="-4398888#0_0" sampledSeconds="101330.34" traveltime="63.92" overlapTraveltime="70.33" density="91.84" laneDensity="91.84" occupancy="41.58" waitingTime="68676.00" timeLoss="93044.32" speed="1.12" speedRelative="0.08" departed="0" arrived="0" entered="1320" left="1515" laneChangedFrom="96" laneChangedTo="291"/>
            <lane id="-4398888#0_1" sampledSeconds="103060.85" traveltime="60.58" overlapTraveltime="67.08" density="93.41" laneDensity="93.41" occupancy="42.32" waitingTime="70483.00" timeLoss="94322.77" speed="1.18" speedRelative="0.08" departed="0" arrived="0" entered="1659" left="1461" laneChangedFrom="291" laneChangedTo="96"/>
        </edge>
        <edge id="-4398888#0.74">
            <lane id="-4398888#0.74_0" sampledSeconds="39105.23" traveltime="20.35" overlapTraveltime="26.02" density="129.93" laneDensity="129.93" occupancy="45.18" waitingTime="28437.00" timeLoss="36296.81" speed="0.97" speedRelative="0.07" departed="0" arrived="0" entered="1515" left="1501" laneChangedFrom="28" laneChangedTo="14"/>
            <lane id="-4398888#0.74_1" sampledSeconds="39844.57" traveltime="21.04" overlapTraveltime="27.06" density="132.38" laneDensity="132.38" occupancy="45.56" waitingTime="29423.00" timeLoss="37116.17" speed="0.93" speedRelative="0.07" departed="0" arrived="0" entered="1461" left="1474" laneChangedFrom="14" laneChangedTo="28"/>
        </edge>
        <edge id="-4398888#2">
            <lane id="-4398888#2_0" sampledSeconds="21564.56" traveltime="11.33" overlapTraveltime="16.85" density="85.36" laneDensity="85.36" occupancy="34.41" waitingTime="14360.00" timeLoss="19515.10" speed="1.30" speedRelative="0.09" departed="0" arrived="0" entered="1208" left="1319" laneChangedFrom="35" laneChangedTo="146"/>
            <lane id="-4398888#2_1" sampledSeconds="22076.74" traveltime="8.53" overlapTraveltime="13.04" density="87.39" laneDensity="87.39" occupancy="35.33" waitingTime="14225.00" timeLoss="19403.81" speed="1.68" speedRelative="0.12" departed="0" arrived="0" entered="1772" left="1660" laneChangedFrom="146" laneChangedTo="35"/>
        </edge>
        <edge id="-46656282#2">
            <lane id="-46656282#2_0" sampledSeconds="22484.33" traveltime="20.78" overlapTraveltime="20.57" density="37.82" laneDensity="37.82" occupancy="18.34" waitingTime="12089.00" timeLoss="18450.03" speed="2.18" speedRelative="0.16" departed="0" arrived="0" entered="0" left="1680" laneChangedFrom="0" laneChangedTo="1683"/>
            <lane id="-46656282#2_1" sampledSeconds="10684.66" traveltime="16.10" overlapTraveltime="18.13" density="17.97" laneDensity="17.97" occupancy="8.63" waitingTime="5695.00" timeLoss="8780.70" speed="2.47" speedRelative="0.18" departed="0" arrived="0" entered="1685" left="0" laneChangedFrom="1683" laneChangedTo="0"/>
        </edge>
        <edge id="-4727535">
            <lane id="-4727535_0" sampledSeconds="743.14" traveltime="0.07" overlapTraveltime="0.88" density="133.33" laneDensity="133.33" occupancy="4.86" waitingTime="36.00" timeLoss="327.35" speed="5.84" speedRelative="0.42" departed="0" arrived="0" entered="848" left="847" laneChangedFrom="0" laneChangedTo="0"/>
            <lane id="-4727535_1" sampledSeconds="661.93" traveltime="0.25" overlapTraveltime="1.24" density="133.33" laneDensity="133.33" occupancy="3.62" waitingTime="114.00" timeLoss="431.09" speed="4.14" speedRelative="0.30" departed="0" arrived="0" entered="536" left="535" laneChangedFrom="0" laneChangedTo="0"/>
            <lane id="-4727535_2" sampledSeconds="448.18" traveltime="0.02" overlapTraveltime="0.80" density="133.33" laneDensity="133.33" occupancy="2.93" waitingTime="0.00" timeLoss="187.67" speed="6.37" speedRelative="0.46" departed="0" arrived="0" entered="558" left="558" laneChangedFrom="0" laneChangedTo="0"/>
        </edge>
        <edge id="-544418922#1">
            <lane id="-544418922#1_0" sampledSeconds="40242.96" traveltime="67.73" overlapTraveltime="68.53" density="47.37" laneDensity="47.37" occupancy="22.94" waitingTime="33641.00" timeLoss="37565.18" speed="0.90" speedRelative="0.07" departed="0" arrived="0" entered="588" left="585" laneChangedFrom="0" laneChangedTo="0" teleported="1"/>
        </edge>
        <edge id="-544418922#2">
            <lane id="-544418922#2_0" sampledSeconds="3117.92" traveltime="0.60" overlapTraveltime="5.30" density="34.82" laneDensity="34.82" occupancy="10.22" waitingTime="2351.00" timeLoss="2650.74" speed="2.07" speedRelative="0.15" departed="0" arrived="0" entered="588" left="588" laneChangedFrom="0" laneChangedTo="0"/>
        </edge>
        <edge id="-550432837#1">
            <lane id="-550432837#1_0" sampledSeconds="1345.97" traveltime="3.64" overlapTraveltime="4.03" density="2.66" laneDensity="2.66" occupancy="1.13" waitingTime="0.00" timeLoss="406.08" speed="9.66" speedRelative="0.70" departed="0" arrived="0" entered="334" left="334" laneChangedFrom="0" laneChangedTo="0"/>
        </edge>
        <edge id="-550432840#0">
            <lane id="-550432840#0_0" sampledSeconds="1501.59" traveltime="1.49" overlapTraveltime="1.89" density="5.34" laneDensity="5.34" occupancy="2.11" waitingTime="0.00" timeLoss="132.00" speed="12.63" speedRelative="0.91" departed="0" arrived="0" entered="795" left="795" laneChangedFrom="0" laneChangedTo="0"/>
        </edge>
        <edge id="-550432840#2">
            <lane id="-550432840#2_0" sampledSeconds="1746.91" traveltime="1.80" overlapTraveltime="2.20" density="5.15" laneDensity="5.15" occupancy="2.11" waitingTime="0.00" timeLoss="153.49" speed="12.63" speedRelative="0.91" departed="0" arrived="0" entered="796" left="795" laneChangedFrom="0" laneChangedTo="0"/>
        </edge>
        <edge id="-550432841#1">
            <lane id="-550432841#1_0" sampledSeconds="9238.84" traveltime="26.50" overlapTraveltime="27.59" density="17.42" laneDensity="17.42" occupancy="8.48" waitingTime="6832.00" timeLoss="8071.29" speed="1.47" speedRelative="0.11" departed="0" arrived="0" entered="335" left="334" laneChangedFrom="0" laneChangedTo="0"/>
            <lane id="-550432841#1_1" sampledSeconds="12296.95" traveltime="26.27" overlapTraveltime="27.07" density="23.18" laneDensity="23.18" occupancy="11.28" waitingTime="9244.00" timeLoss="10968.17" speed="1.50" speedRelative="0.11" departed="0" arrived="0" entered="456" left="452" laneChangedFrom="0" laneChangedTo="0"/>
        </edge>
        <edge id="-565560611#2">
            <lane id="-565560611#2_0" sampledSeconds="5602.89" traveltime="15.66" overlapTraveltime="16.39" density="7.72" laneDensity="7.72" occupancy="3.73" waitingTime="3378.00" timeLoss="4276.25" speed="3.27" speedRelative="0.24" departed="0" arrived="0" entered="342" left="341" laneChangedFrom="0" laneChangedTo="0"/>
        </edge>
        <edge id="-565560611#3">
            <lane id="-565560611#3_0" sampledSeconds="779.16" traveltime="1.82" overlapTraveltime="2.28" density="2.39" laneDensity="2.39" occupancy="0.97" waitingTime="30.00" timeLoss="115.74" speed="11.77" speedRelative="0.85" departed="0" arrived="0" entered="342" left="342" laneChangedFrom="0" laneChangedTo="0"/>
        </edge>
        <edge id="-5736332#1">
            <lane id="-5736332#1_0" sampledSeconds="2642.44" traveltime="175.03" overlapTraveltime="178.90" density="4.49" laneDensity="4.49" occupancy="2.23" waitingTime="2501.00" timeLoss="2562.39" speed="0.25" speedRelative="0.03" departed="0" arrived="0" entered="15" left="15" laneChangedFrom="0" laneChangedTo="0" teleported="2"/>
        </edge>
        <edge id="-582263960#2">
            <lane id="-582263960#2_0" sampledSeconds="217352.95" traveltime="197.03" overlapTraveltime="197.82" density="87.56" laneDensity="87.56" occupancy="43.45" waitingTime="158535.00" timeLoss="203634.86" speed="0.87" speedRelative="0.06" departed="0" arrived="0" entered="952" left="1173" laneChangedFrom="74" laneChangedTo="317"/>
            <lane id="-582263960#2_1" sampledSeconds="219894.85" traveltime="260.46" overlapTraveltime="262.65" density="88.58" laneDensity="88.58" occupancy="43.99" waitingTime="167748.57" timeLoss="209531.04" speed="0.65" speedRelative="0.05" departed="0" arrived="0" entered="1006" left="741" laneChangedFrom="317" laneChangedTo="74"/>
        </edge>
        <edge id="-582263960#2.366">
            <lane id="-582263960#2.366_0" sampledSeconds="92534.59" traveltime="78.42" overlapTraveltime="79.33" density="93.28" laneDensity="93.28" occupancy="46.10" waitingTime="73455.00" timeLoss="86202.98" speed="0.90" speedRelative="0.06" departed="0" arrived="0" entered="1174" left="1153" laneChangedFrom="37" laneChangedTo="24" teleported="1"/>
            <lane id="-582263960#2.366_1" sampledSeconds="93125.81" traveltime="125.14" overlapTraveltime="125.96" density="93.88" laneDensity="93.88" occupancy="46.54" waitingTime="77668.00" timeLoss="89324.89" speed="0.57" speedRelative="0.04" departed="0" arrived="0" entered="740" left="745" laneChangedFrom="24" laneChangedTo="37"/>
        </edge>
        <edge id="-601718666#2">
            <lane id="-601718666#2_0" sampledSeconds="126697.51" traveltime="149.29" overlapTraveltime="150.15" density="110.83" laneDensity="110.83" occupancy="54.85" waitingTime="106725.00" timeLoss="121679.05" speed="0.54" speedRelative="0.04" departed="0" arrived="0" entered="908" left="853" laneChangedFrom="34" laneChangedTo="34" teleported="1"/>
            <lane id="-601718666#2_1" sampledSeconds="120523.53" traveltime="166.93" overlapTraveltime="167.79" density="105.43" laneDensity="105.43" occupancy="52.23" waitingTime="102581.00" timeLoss="116292.75" speed="0.49" speedRelative="0.04" departed="0" arrived="0" entered="724" left="716" laneChangedFrom="32" laneChangedTo="34"/>
        </edge>
        <edge id="-651999512#0">
            <lane id="-651999512#0_0" sampledSeconds="1037.99" traveltime="0.91" overlapTraveltime="1.31" density="6.09" laneDensity="6.09" occupancy="2.12" waitingTime="0.00" timeLoss="94.50" speed="12.58" speedRelative="0.91" departed="0" arrived="0" entered="795" left="795" laneChangedFrom="0" laneChangedTo="0"/>
        </edge>
        <edge id="-651999512#1">
            <lane id="-651999512#1_0" sampledSeconds="3387.18" traveltime="3.86" overlapTraveltime="4.26" density="4.66" laneDensity="4.66" occupancy="2.11" waitingTime="0.00" timeLoss="302.31" speed="12.61" speedRelative="0.91" departed="0" arrived="0" entered="795" left="795" laneChangedFrom="0" laneChangedTo="0"/>
        </edge>
        <edge id="-821493797#0">
            <lane id="-821493797#0_0" sampledSeconds="11236.70" traveltime="12.28" overlapTraveltime="13.22" density="107.42" laneDensity="107.42" occupancy="50.44" waitingTime="9350.00" timeLoss="10338.93" speed="0.91" speedRelative="0.07" departed="0" arrived="0" entered="856" left="847" laneChangedFrom="8" laneChangedTo="0"/>
            <lane id="-821493797#0_1" sampledSeconds="10631.59" traveltime="18.45" overlapTraveltime="19.94" density="101.64" laneDensity="101.64" occupancy="48.23" waitingTime="9102.00" timeLoss="10124.28" speed="0.60" speedRelative="0.04" departed="0" arrived="0" entered="528" left="536" laneChangedFrom="0" laneChangedTo="8"/>
            <lane id="-821493797#0_2" sampledSeconds="6616.72" traveltime="11.05" overlapTraveltime="11.85" density="63.26" laneDensity="63.26" occupancy="29.56" waitingTime="5419.00" timeLoss="6045.58" speed="1.01" speedRelative="0.07" departed="0" arrived="0" entered="559" left="559" laneChangedFrom="0" laneChangedTo="0" teleported="1"/>
        </edge>
        <edge id="-821493797#2">