<?xml version="1.0" encoding="UTF-8"?>

<!-- generated on 2025-12-03 15:45:30 by Eclipse SUMO GUI Version 1.24.0
<sumoConfiguration xmlns:xsi="http://www.w3.org/2001/XMLSchema-instance" xsi:noNamespaceSchemaLocation="http://sumo.dlr.de/xsd/sumoConfiguration.xsd">

    <input>
        <net-file value="C:\Users\laebli\OneDrive - ETH Zurich\Microscopic\SUMO\251128_SUMO_V2_evening\Bellevue_V2.net.xml"/>
        <route-files value="C:\Users\laebli\OneDrive - ETH Zurich\Microscopic\SUMO\251128_SUMO_V2_evening\demand_evening.xml"/>
        <additional-files value="C:\Users\laebli\OneDrive - ETH Zurich\Microscopic\SUMO\251128_SUMO_V2_evening\detectors.add.xml"/>
    </input>

    <output>
        <lanedata-output value="C:\Users\laebli\OneDrive - ETH Zurich\Microscopic\SUMO\251128_SUMO_V2_evening\Output_LaneData_V2_evening.xml"/>
    </output>

</sumoConfiguration>
-->

<meandata xmlns:xsi="http://www.w3.org/2001/XMLSchema-instance" xsi:noNamespaceSchemaLocation="http://sumo.dlr.de/xsd/meandata_file.xsd">
    <interval begin="0.00" end="14583.00" id="DEFAULT_LANEDATA">
        <edge id="-10594647#1">
            <lane id="-10594647#1_0" sampledSeconds="6974.88" traveltime="19.36" overlapTraveltime="20.22" density="15.73" laneDensity="15.73" occupancy="7.59" waitingTime="4734.00" timeLoss="6038.59" speed="1.75" speedRelative="0.13" departed="0" arrived="0" entered="345" left="345" laneChangedFrom="0" laneChangedTo="0"/>
        </edge>
        <edge id="-10750844#2">
            <lane id="-10750844#2_0" sampledSeconds="2550.47" traveltime="5.09" overlapTraveltime="5.54" density="6.08" laneDensity="6.08" occupancy="2.81" waitingTime="1168.00" timeLoss="1421.03" speed="6.09" speedRelative="0.44" departed="0" arrived="0" entered="461" left="459" laneChangedFrom="0" laneChangedTo="0"/>
        </edge>
        <edge id="-1163569502#1">
            <lane id="-1163569502#1_0" sampledSeconds="1583.26" traveltime="6.62" overlapTraveltime="7.30" density="2.26" laneDensity="2.26" occupancy="1.01" waitingTime="0.00" timeLoss="178.84" speed="7.27" speedRelative="0.87" departed="0" arrived="0" entered="217" left="217" laneChangedFrom="0" laneChangedTo="0"/>
        </edge>
        <edge id="-11667106#10">
            <lane id="-11667106#10_0" sampledSeconds="16230.75" traveltime="12.28" overlapTraveltime="13.03" density="26.42" laneDensity="26.42" occupancy="12.33" waitingTime="7076.00" timeLoss="9097.67" speed="3.62" speedRelative="0.43" departed="0" arrived="0" entered="1246" left="1246" laneChangedFrom="0" laneChangedTo="0"/>
        </edge>
        <edge id="-11667106#2">
            <lane id="-11667106#2_0" sampledSeconds="50408.03" traveltime="67.40" overlapTraveltime="68.21" density="36.83" laneDensity="36.83" occupancy="18.22" waitingTime="35223.00" timeLoss="41702.96" speed="1.45" speedRelative="0.17" departed="0" arrived="0" entered="739" left="739" laneChangedFrom="0" laneChangedTo="0"/>
        </edge>
        <edge id="-11667106#5">
            <lane id="-11667106#5_0" sampledSeconds="24593.79" traveltime="19.20" overlapTraveltime="19.98" density="31.29" laneDensity="31.29" occupancy="15.05" waitingTime="12534.00" timeLoss="15712.81" speed="2.95" speedRelative="0.35" departed="0" arrived="0" entered="1231" left="1231" laneChangedFrom="0" laneChangedTo="0"/>
        </edge>
        <edge id="-11667106#8">
            <lane id="-11667106#8_0" sampledSeconds="17121.82" traveltime="12.98" overlapTraveltime="13.74" density="28.14" laneDensity="28.14" occupancy="13.30" waitingTime="7879.00" timeLoss="10048.41" speed="3.40" speedRelative="0.41" departed="0" arrived="0" entered="1246" left="1246" laneChangedFrom="0" laneChangedTo="0"/>
        </edge>
        <edge id="-1168931395#1">
            <lane id="-1168931395#1_0" sampledSeconds="3360.35" traveltime="5.25" overlapTraveltime="7.58" density="9.88" laneDensity="9.88" occupancy="3.78" waitingTime="1937.00" timeLoss="2425.24" speed="3.74" speedRelative="0.27" departed="0" arrived="0" entered="442" left="450" laneChangedFrom="10" laneChangedTo="18"/>
            <lane id="-1168931395#1_1" sampledSeconds="4471.78" traveltime="4.90" overlapTraveltime="6.85" density="13.14" laneDensity="13.14" occupancy="5.10" waitingTime="2334.00" timeLoss="3130.79" speed="4.14" speedRelative="0.30" departed="0" arrived="0" entered="656" left="648" laneChangedFrom="18" laneChangedTo="10"/>
        </edge>
        <edge id="-1168931399#2">
            <lane id="-1168931399#2_0" sampledSeconds="4250.63" traveltime="22.41" overlapTraveltime="23.48" density="17.32" laneDensity="17.32" occupancy="7.86" waitingTime="3272.00" timeLoss="3807.25" speed="0.93" speedRelative="0.11" departed="0" arrived="0" entered="181" left="181" laneChangedFrom="0" laneChangedTo="0"/>
        </edge>
        <edge id="-1168931401#1">
            <lane id="-1168931401#1_0" sampledSeconds="1257.99" traveltime="2.24" overlapTraveltime="2.67" density="3.82" laneDensity="3.82" occupancy="1.54" waitingTime="4.00" timeLoss="310.86" speed="10.35" speedRelative="0.74" departed="0" arrived="0" entered="472" left="472" laneChangedFrom="0" laneChangedTo="0"/>
        </edge>
        <edge id="-125860019#2">
            <lane id="-125860019#2_0" sampledSeconds="2472.30" traveltime="19.88" overlapTraveltime="21.31" density="11.64" laneDensity="11.64" occupancy="5.51" waitingTime="1697.00" timeLoss="2098.01" speed="0.92" speedRelative="0.17" departed="0" arrived="0" entered="116" left="116" laneChangedFrom="0" laneChangedTo="0"/>
        </edge>
        <edge id="-125860019#4">
            <lane id="-125860019#4_0" sampledSeconds="551.74" traveltime="3.69" overlapTraveltime="4.76" density="2.45" laneDensity="2.45" occupancy="0.91" waitingTime="20.00" timeLoss="111.99" speed="4.30" speedRelative="0.77" departed="0" arrived="0" entered="116" left="116" laneChangedFrom="0" laneChangedTo="0"/>
        </edge>
        <edge id="-14389891#0">
            <lane id="-14389891#0_0" sampledSeconds="2131.72" traveltime="10.50" overlapTraveltime="11.78" density="1.95" laneDensity="1.95" occupancy="0.90" waitingTime="130.00" timeLoss="363.45" speed="6.79" speedRelative="0.82" departed="0" arrived="0" entered="181" left="181" laneChangedFrom="0" laneChangedTo="0"/>
        </edge>
        <edge id="-14389891#3">
            <lane id="-14389891#3_0" sampledSeconds="2252.62" traveltime="8.78" overlapTraveltime="10.38" density="2.76" laneDensity="2.76" occupancy="1.21" waitingTime="382.00" timeLoss="633.71" speed="5.87" speedRelative="0.70" departed="0" arrived="0" entered="217" left="217" laneChangedFrom="0" laneChangedTo="0"/>
        </edge>
        <edge id="-14389891#4">
            <lane id="-14389891#4_0" sampledSeconds="383.46" traveltime="1.09" overlapTraveltime="1.77" density="3.28" laneDensity="3.28" occupancy="1.01" waitingTime="0.00" timeLoss="38.90" speed="7.36" speedRelative="0.88" departed="0" arrived="0" entered="217" left="217" laneChangedFrom="0" laneChangedTo="0"/>
        </edge>
        <edge id="-14389891#5">
            <lane id="-14389891#5_0" sampledSeconds="448.43" traveltime="1.39" overlapTraveltime="2.07" density="3.00" laneDensity="3.00" occupancy="1.01" waitingTime="0.00" timeLoss="44.55" speed="7.38" speedRelative="0.89" departed="0" arrived="0" entered="217" left="217" laneChangedFrom="0" laneChangedTo="0"/>
        </edge>
        <edge id="-15677258#0">
            <lane id="-15677258#0_0" sampledSeconds="1595.37" traveltime="3.14" overlapTraveltime="4.31" density="12.32" laneDensity="12.32" occupancy="4.17" waitingTime="278.00" timeLoss="837.77" speed="3.22" speedRelative="0.39" departed="0" arrived="0" entered="370" left="370" laneChangedFrom="0" laneChangedTo="0"/>
        </edge>
        <edge id="-15677258#1">
            <lane id="-15677258#1_0" sampledSeconds="1117.36" traveltime="2.10" overlapTraveltime="3.02" density="9.66" laneDensity="9.66" occupancy="2.91" waitingTime="35.00" timeLoss="534.00" speed="4.28" speedRelative="0.51" departed="0" arrived="0" entered="370" left="370" laneChangedFrom="0" laneChangedTo="0"/>
        </edge>
        <edge id="-15677510#0">
            <lane id="-15677510#0_0" sampledSeconds="25008.58" traveltime="57.00" overlapTraveltime="58.37" density="81.35" laneDensity="81.35" occupancy="39.83" waitingTime="20202.00" timeLoss="24010.04" speed="0.45" speedRelative="0.03" departed="0" arrived="0" entered="430" left="427" laneChangedFrom="0" laneChangedTo="0"/>
        </edge>
        <edge id="-15677510#1">
            <lane id="-15677510#1_0" sampledSeconds="31264.02" traveltime="71.11" overlapTraveltime="72.35" density="67.97" laneDensity="67.97" occupancy="29.42" waitingTime="24595.00" timeLoss="30123.41" speed="0.51" speedRelative="0.04" departed="0" arrived="0" entered="435" left="430" laneChangedFrom="0" laneChangedTo="0"/>
        </edge>
        <edge id="-15677510#2">
            <lane id="-15677510#2_0" sampledSeconds="603.05" traveltime="0.12" overlapTraveltime="1.39" density="64.61" laneDensity="64.61" occupancy="3.48" waitingTime="0.00" timeLoss="425.86" speed="4.07" speedRelative="0.29" departed="0" arrived="0" entered="435" left="435" laneChangedFrom="0" laneChangedTo="0"/>
        </edge>
        <edge id="-15677510#3">
            <lane id="-15677510#3_0" sampledSeconds="4829.58" traveltime="12.47" overlapTraveltime="13.16" density="3.49" laneDensity="3.49" occupancy="1.65" waitingTime="1015.00" timeLoss="2037.32" speed="7.60" speedRelative="0.55" departed="0" arrived="0" entered="367" left="367" laneChangedFrom="0" laneChangedTo="0"/>
        </edge>
        <edge id="-172213041#1">
            <lane id="-172213041#1_0" sampledSeconds="4527.78" traveltime="10.32" overlapTraveltime="10.72" density="2.46" laneDensity="2.46" occupancy="1.18" waitingTime="11.00" timeLoss="477.36" speed="12.24" speedRelative="0.88" departed="0" arrived="0" entered="382" left="447" laneChangedFrom="15" laneChangedTo="80"/>
            <lane id="-172213041#1_1" sampledSeconds="45429.91" traveltime="20.95" overlapTraveltime="22.24" density="24.68" laneDensity="24.68" occupancy="11.81" waitingTime="16583.00" timeLoss="25941.12" speed="5.90" speedRelative="0.42" departed="0" arrived="0" entered="2083" left="2018" laneChangedFrom="80" laneChangedTo="15"/>
        </edge>
        <edge id="-172213042">
            <lane id="-172213042_0" sampledSeconds="1722.71" traveltime="3.85" overlapTraveltime="4.46" density="2.50" laneDensity="2.50" occupancy="1.12" waitingTime="55.00" timeLoss="246.22" speed="11.73" speedRelative="0.84" departed="0" arrived="0" entered="416" left="383" laneChangedFrom="33" laneChangedTo="0"/>
            <lane id="-172213042_1" sampledSeconds="7113.08" traveltime="4.74" overlapTraveltime="5.49" density="10.31" laneDensity="10.31" occupancy="4.68" waitingTime="917.00" timeLoss="2184.94" speed="9.52" speedRelative="0.69" departed="0" arrived="0" entered="1305" left="1285" laneChangedFrom="53" laneChangedTo="33"/>
            <lane id="-172213042_2" sampledSeconds="2803.89" traveltime="3.74" overlapTraveltime="4.32" density="4.07" laneDensity="4.07" occupancy="1.82" waitingTime="53.00" timeLoss="345.02" speed="12.11" speedRelative="0.87" departed="0" arrived="0" entered="610" left="663" laneChangedFrom="0" laneChangedTo="53"/>
        </edge>
        <edge id="-172222117#1">
            <lane id="-172222117#1_0" sampledSeconds="2476.67" traveltime="3.42" overlapTraveltime="3.81" density="4.14" laneDensity="4.14" occupancy="1.83" waitingTime="0.00" timeLoss="280.27" speed="12.08" speedRelative="0.87" departed="0" arrived="0" entered="672" left="646" laneChangedFrom="26" laneChangedTo="0"/>
            <lane id="-172222117#1_1" sampledSeconds="12307.06" traveltime="3.47" overlapTraveltime="3.89" density="20.55" laneDensity="20.55" occupancy="9.13" waitingTime="0.00" timeLoss="1718.70" speed="11.84" speedRelative="0.85" departed="0" arrived="0" entered="3142" left="3168" laneChangedFrom="0" laneChangedTo="26"/>
        </edge>
        <edge id="-172222117#1.57">
            <lane id="-172222117#1.57_0" sampledSeconds="2003.74" traveltime="3.08" overlapTraveltime="3.50" density="3.88" laneDensity="3.88" occupancy="1.71" waitingTime="139.00" timeLoss="296.77" speed="11.54" speedRelative="0.83" departed="0" arrived="0" entered="646" left="533" laneChangedFrom="115" laneChangedTo="2"/>
            <lane id="-172222117#1.57_1" sampledSeconds="405.91" traveltime="5.23" overlapTraveltime="5.51" density="0.79" laneDensity="0.79" occupancy="0.37" waitingTime="155.00" timeLoss="195.35" speed="7.34" speedRelative="0.53" departed="0" arrived="0" entered="0" left="113" laneChangedFrom="2" laneChangedTo="115"/>
        </edge>
        <edge id="-188708009">
            <lane id="-188708009_0" sampledSeconds="40569.82" traveltime="78.36" overlapTraveltime="78.55" density="32.32" laneDensity="32.32" occupancy="16.01" waitingTime="30753.00" timeLoss="37054.21" speed="1.16" speedRelative="0.08" departed="0" arrived="0" entered="471" left="610" laneChangedFrom="128" laneChangedTo="277"/>
            <lane id="-188708009_1" sampledSeconds="44565.73" traveltime="65.42" overlapTraveltime="66.76" density="35.51" laneDensity="35.51" occupancy="17.57" waitingTime="32386.00" timeLoss="40192.15" speed="1.36" speedRelative="0.10" departed="0" arrived="0" entered="723" left="563" laneChangedFrom="277" laneChangedTo="128"/>
        </edge>
        <edge id="-188708010">
            <lane id="-188708010_0" sampledSeconds="9088.46" traveltime="18.87" overlapTraveltime="19.41" density="18.49" laneDensity="18.49" occupancy="8.53" waitingTime="6774.00" timeLoss="7742.11" speed="1.99" speedRelative="0.14" departed="0" arrived="0" entered="458" left="474" laneChangedFrom="12" laneChangedTo="28"/>
            <lane id="-188708010_1" sampledSeconds="10324.51" traveltime="15.86" overlapTraveltime="16.41" density="21.01" laneDensity="21.01" occupancy="9.64" waitingTime="7377.00" timeLoss="8559.49" speed="2.36" speedRelative="0.17" departed="0" arrived="0" entered="640" left="624" laneChangedFrom="28" laneChangedTo="12"/>
        </edge>
        <edge id="-27361348#1">
            <lane id="-27361348#1_0" sampledSeconds="46977.02" traveltime="279.37" overlapTraveltime="291.08" density="26.72" laneDensity="26.72" occupancy="13.30" waitingTime="39851.00" timeLoss="45495.18" speed="0.43" speedRelative="0.03" departed="0" arrived="0" entered="188" left="127" laneChangedFrom="0" laneChangedTo="11"/>
            <lane id="-27361348#1_1" sampledSeconds="195817.54" traveltime="854.09" overlapTraveltime="916.55" density="111.40" laneDensity="111.40" occupancy="55.29" waitingTime="168246.00" timeLoss="193853.90" speed="0.14" speedRelative="0.01" departed="0" arrived="0" entered="231" left="200" laneChangedFrom="44" laneChangedTo="28"/>
            <lane id="-27361348#1_2" sampledSeconds="180414.04" traveltime="662.67" overlapTraveltime="710.28" density="102.63" laneDensity="102.63" occupancy="50.90" waitingTime="152373.00" timeLoss="178115.43" speed="0.18" speedRelative="0.01" departed="0" arrived="0" entered="256" left="254" laneChangedFrom="24" laneChangedTo="36"/>
        </edge>
        <edge id="-28674458#0">
            <lane id="-28674458#0_0" sampledSeconds="4000.35" traveltime="30.82" overlapTraveltime="64.52" density="114.78" laneDensity="114.78" occupancy="26.48" waitingTime="3639.00" timeLoss="3920.94" speed="0.11" speedRelative="0.01" departed="0" arrived="0" entered="62" left="62" laneChangedFrom="0" laneChangedTo="0"/>
        </edge>
        <edge id="-28674458#1">
            <lane id="-28674458#1_0" sampledSeconds="8118.05" traveltime="67.57" overlapTraveltime="130.94" density="10.21" laneDensity="10.21" occupancy="3.45" waitingTime="7152.00" timeLoss="7816.63" speed="0.45" speedRelative="0.03" departed="0" arrived="0" entered="62" left="62" laneChangedFrom="0" laneChangedTo="0"/>
        </edge>
        <edge id="-28674458#2">
            <lane id="-28674458#2_0" sampledSeconds="84.95" traveltime="0.92" overlapTraveltime="1.37" density="0.67" laneDensity="0.67" occupancy="0.21" waitingTime="0.00" timeLoss="24.05" speed="10.01" speedRelative="0.72" departed="0" arrived="0" entered="62" left="62" laneChangedFrom="0" laneChangedTo="0"/>
        </edge>
        <edge id="-295864510#2">
            <lane id="-295864510#2_0" sampledSeconds="97.34" traveltime="47.51" overlapTraveltime="48.67" density="0.24" laneDensity="0.24" occupancy="0.12" waitingTime="84.00" timeLoss="89.49" speed="0.67" speedRelative="0.08" departed="0" arrived="0" entered="2" left="2" laneChangedFrom="0" laneChangedTo="0"/>
        </edge>
        <edge id="-295864510#3">
            <lane id="-295864510#3_0" sampledSeconds="11.16" traveltime="4.88" overlapTraveltime="5.58" density="0.02" laneDensity="0.02" occupancy="0.01" waitingTime="0.00" timeLoss="1.07" speed="7.15" speedRelative="0.86" departed="0" arrived="0" entered="2" left="2" laneChangedFrom="0" laneChangedTo="0"/>
        </edge>
        <edge id="-295864510#4">
            <lane id="-295864510#4_0" sampledSeconds="2.05" traveltime="0.04" overlapTraveltime="1.02" density="0.70" laneDensity="0.70" occupancy="0.01" waitingTime="0.00" timeLoss="0.73" speed="5.07" speedRelative="0.61" departed="0" arrived="0" entered="2" left="2" laneChangedFrom="0" laneChangedTo="0"/>
        </edge>
        <edge id="-313458176#4">
            <lane id="-313458176#4_0" sampledSeconds="46076.95" traveltime="97.52" overlapTraveltime="116.85" density="78.52" laneDensity="78.52" occupancy="35.61" waitingTime="39084.00" timeLoss="44776.78" speed="0.39" speedRelative="0.03" departed="0" arrived="0" entered="392" left="414" laneChangedFrom="0" laneChangedTo="27" teleported="1"/>
            <lane id="-313458176#4_1" sampledSeconds="11814.36" traveltime="10.44" overlapTraveltime="10.92" density="20.13" laneDensity="20.13" occupancy="9.64" waitingTime="7259.00" timeLoss="8223.18" speed="4.14" speedRelative="0.30" departed="0" arrived="0" entered="1094" left="1064" laneChangedFrom="27" laneChangedTo="0" teleported="1"/>
        </edge>
        <edge id="-313458176#4.40">
            <lane id="-313458176#4.40_0" sampledSeconds="230805.88" traveltime="984.27" overlapTraveltime="990.66" density="91.59" laneDensity="91.59" occupancy="45.71" waitingTime="208621.16" timeLoss="227781.69" speed="0.18" speedRelative="0.01" departed="0" arrived="0" entered="414" left="194" laneChangedFrom="207" laneChangedTo="16" teleported="9"/>
            <lane id="-313458176#4.40_1" sampledSeconds="207147.88" traveltime="1309.82" overlapTraveltime="1309.60" density="82.20" laneDensity="82.20" occupancy="41.08" waitingTime="187965.00" timeLoss="205113.18" speed="0.14" speedRelative="0.01" departed="0" arrived="0" entered="0" left="171" laneChangedFrom="14" laneChangedTo="207" teleported="6"/>
        </edge>
        <edge id="-35162767#0">
            <lane id="-35162767#0_0" sampledSeconds="3087.62" traveltime="2.82" overlapTraveltime="3.24" density="6.19" laneDensity="6.19" occupancy="2.70" waitingTime="16.00" timeLoss="357.93" speed="12.12" speedRelative="0.87" departed="0" arrived="0" entered="955" left="954" laneChangedFrom="0" laneChangedTo="0"/>
        </edge>
        <edge id="-35162767#1">
            <lane id="-35162767#1_0" sampledSeconds="6328.46" traveltime="6.22" overlapTraveltime="6.63" density="5.66" laneDensity="5.66" occupancy="2.66" waitingTime="0.00" timeLoss="638.72" speed="12.32" speedRelative="0.89" departed="0" arrived="0" entered="956" left="955" laneChangedFrom="0" laneChangedTo="0"/>
        </edge>
        <edge id="-35162769#0">
            <lane id="-35162769#0_0" sampledSeconds="5640.47" traveltime="5.42" overlapTraveltime="5.89" density="6.85" laneDensity="6.85" occupancy="3.17" waitingTime="282.00" timeLoss="1349.80" speed="10.43" speedRelative="0.75" departed="0" arrived="0" entered="957" left="957" laneChangedFrom="0" laneChangedTo="0"/>
        </edge>
        <edge id="-35162769#1">
            <lane id="-35162769#1_0" sampledSeconds="2207.17" traveltime="1.90" overlapTraveltime="2.31" density="6.39" laneDensity="6.39" occupancy="2.64" waitingTime="0.00" timeLoss="203.23" speed="12.44" speedRelative="0.90" departed="0" arrived="0" entered="957" left="957" laneChangedFrom="0" laneChangedTo="0"/>
        </edge>
        <edge id="-35162769#2">
            <lane id="-35162769#2_0" sampledSeconds="2465.88" traveltime="2.18" overlapTraveltime="2.58" density="6.21" laneDensity="6.21" occupancy="2.62" waitingTime="0.00" timeLoss="214.06" speed="12.52" speedRelative="0.90" departed="0" arrived="0" entered="957" left="957" laneChangedFrom="0" laneChangedTo="0"/>
        </edge>
        <edge id="-4398888#0">
            <lane id="-4398888#0_0" sampledSeconds="74380.09" traveltime="115.20" overlapTraveltime="129.89" density="68.98" laneDensity="68.98" occupancy="30.50" waitingTime="60515.00" timeLoss="71041.38" speed="0.61" speedRelative="0.04" departed="0" arrived="0" entered="596" left="581" laneChangedFrom="114" laneChangedTo="109"/>
            <lane id="-4398888#0_1" sampledSeconds="78134.87" traveltime="94.89" overlapTraveltime="107.21" density="72.46" laneDensity="72.46" occupancy="32.07" waitingTime="62323.00" timeLoss="73985.61" speed="0.74" speedRelative="0.05" departed="0" arrived="0" entered="715" left="720" laneChangedFrom="109" laneChangedTo="124"/>
            <lane id="-4398888#0_2" sampledSeconds="397.37" traveltime="40.15" overlapTraveltime="42.86" density="0.37" laneDensity="0.37" occupancy="0.18" waitingTime="304.00" timeLoss="345.71" speed="1.84" speedRelative="0.13" departed="0" arrived="0" entered="11" left="0" laneChangedFrom="10" laneChangedTo="0"/>
        </edge>
        <edge id="-4398888#0.74">
            <lane id="-4398888#0.74_0" sampledSeconds="28602.62" traveltime="46.79" overlapTraveltime="47.74" density="97.24" laneDensity="97.24" occupancy="43.73" waitingTime="23830.00" timeLoss="27472.73" speed="0.53" speedRelative="0.04" departed="0" arrived="0" entered="580" left="616" laneChangedFrom="5" laneChangedTo="44"/>
            <lane id="-4398888#0.74_1" sampledSeconds="30123.80" traveltime="41.62" overlapTraveltime="43.12" density="102.41" laneDensity="102.41" occupancy="45.91" waitingTime="24738.00" timeLoss="28822.59" speed="0.58" speedRelative="0.04" departed="0" arrived="0" entered="721" left="679" laneChangedFrom="44" laneChangedTo="5"/>
        </edge>
        <edge id="-4398888#2">
            <lane id="-4398888#2_0" sampledSeconds="13605.30" traveltime="14.64" overlapTraveltime="22.79" density="55.11" laneDensity="55.11" occupancy="21.27" waitingTime="10674.00" timeLoss="12635.49" speed="0.96" speedRelative="0.07" departed="0" arrived="0" entered="589" left="596" laneChangedFrom="15" laneChangedTo="36"/>
            <lane id="-4398888#2_1" sampledSeconds="14603.19" traveltime="13.26" overlapTraveltime="20.25" density="59.15" laneDensity="59.15" occupancy="23.08" waitingTime="11117.00" timeLoss="13466.98" speed="1.08" speedRelative="0.08" departed="0" arrived="0" entered="737" left="714" laneChangedFrom="36" laneChangedTo="15"/>
        </edge>
        <edge id="-46656282#2">
            <lane id="-46656282#2_0" sampledSeconds="10206.56" traveltime="12.88" overlapTraveltime="13.27" density="17.57" laneDensity="17.57" occupancy="8.42" waitingTime="4129.00" timeLoss="7373.07" speed="3.38" speedRelative="0.24" departed="0" arrived="0" entered="0" left="1116" laneChangedFrom="0" laneChangedTo="1116"/>
            <lane id="-46656282#2_1" sampledSeconds="3801.87" traveltime="9.75" overlapTraveltime="10.97" density="6.54" laneDensity="6.54" occupancy="3.08" waitingTime="1507.00" timeLoss="2691.81" speed="4.09" speedRelative="0.29" departed="0" arrived="0" entered="1116" left="0" laneChangedFrom="1116" laneChangedTo="0"/>
        </edge>
        <edge id="-4727535">
            <lane id="-4727535_0" sampledSeconds="295.00" traveltime="0.02" overlapTraveltime="0.77" density="133.33" laneDensity="133.33" occupancy="1.97" waitingTime="0.00" timeLoss="107.74" speed="6.65" speedRelative="0.48" departed="0" arrived="0" entered="383" left="383" laneChangedFrom="0" laneChangedTo="0"/>
            <lane id="-4727535_1" sampledSeconds="839.37" traveltime="0.02" overlapTraveltime="0.65" density="133.33" laneDensity="133.33" occupancy="5.61" waitingTime="0.00" timeLoss="271.43" speed="7.84" speedRelative="0.56" departed="0" arrived="0" entered="1285" left="1285" laneChangedFrom="0" laneChangedTo="0"/>
            <lane id="-4727535_2" sampledSeconds="558.98" traveltime="0.03" overlapTraveltime="0.84" density="133.33" laneDensity="133.33" occupancy="3.73" waitingTime="0.00" timeLoss="251.76" speed="6.07" speedRelative="0.44" departed="0" arrived="0" entered="663" left="663" laneChangedFrom="0" laneChangedTo="0"/>
        </edge>
        <edge id="-550432837#1">
            <lane id="-550432837#1_0" sampledSeconds="1723.50" traveltime="3.65" overlapTraveltime="4.04" density="3.49" laneDensity="3.49" occupancy="1.49" waitingTime="0.00" timeLoss="514.11" speed="9.62" speedRelative="0.69" departed="0" arrived="0" entered="427" left="426" laneChangedFrom="0" laneChangedTo="0"/>
        </edge>
        <edge id="-550432840#0">
            <lane id="-550432840#0_0" sampledSeconds="1838.42" traveltime="1.52" overlapTraveltime="1.92" density="6.69" laneDensity="6.69" occupancy="2.64" waitingTime="0.00" timeLoss="174.77" speed="12.40" speedRelative="0.89" departed="0" arrived="0" entered="956" left="956" laneChangedFrom="0" laneChangedTo="0"/>
        </edge>
        <edge id="-550432840#2">
            <lane id="-550432840#2_0" sampledSeconds="2152.77" traveltime="1.85" overlapTraveltime="2.25" density="6.49" laneDensity="6.49" occupancy="2.66" waitingTime="0.00" timeLoss="217.77" speed="12.32" speedRelative="0.89" departed="0" arrived="0" entered="956" left="956" laneChangedFrom="0" laneChangedTo="0"/>
        </edge>
        <edge id="-550432841#1">
            <lane id="-550432841#1_0" sampledSeconds="5084.12" traveltime="10.81" overlapTraveltime="11.88" density="9.81" laneDensity="9.81" occupancy="4.61" waitingTime="2315.00" timeLoss="3579.24" speed="3.41" speedRelative="0.25" departed="0" arrived="0" entered="428" left="427" laneChangedFrom="0" laneChangedTo="0"/>
            <lane id="-550432841#1_1" sampledSeconds="5933.54" traveltime="10.39" overlapTraveltime="11.28" density="11.45" laneDensity="11.45" occupancy="5.40" waitingTime="2782.00" timeLoss="4376.90" speed="3.59" speedRelative="0.26" departed="0" arrived="0" entered="526" left="526" laneChangedFrom="0" laneChangedTo="0"/>
        </edge>
        <edge id="-565560611#2">
            <lane id="-565560611#2_0" sampledSeconds="9166.99" traveltime="18.92" overlapTraveltime="19.73" density="12.93" laneDensity="12.93" occupancy="6.27" waitingTime="5807.00" timeLoss="7355.61" speed="2.72" speedRelative="0.20" departed="0" arrived="0" entered="468" left="462" laneChangedFrom="0" laneChangedTo="0"/>
        </edge>
        <edge id="-565560611#3">
            <lane id="-565560611#3_0" sampledSeconds="1094.26" traveltime="1.86" overlapTraveltime="2.33" density="3.44" laneDensity="3.44" occupancy="1.38" waitingTime="55.00" timeLoss="179.17" speed="11.49" speedRelative="0.83" departed="0" arrived="0" entered="471" left="468" laneChangedFrom="0" laneChangedTo="0"/>
        </edge>
        <edge id="-582263960#2">
            <lane id="-582263960#2_0" sampledSeconds="141543.67" traveltime="220.77" overlapTraveltime="222.35" density="58.34" laneDensity="58.34" occupancy="28.78" waitingTime="114782.26" timeLoss="133609.01" speed="0.77" speedRelative="0.06" departed="0" arrived="0" entered="899" left="674" laneChangedFrom="534" laneChangedTo="332" teleported="2"/>
            <lane id="-582263960#2_1" sampledSeconds="82036.18" traveltime="63.48" overlapTraveltime="65.70" density="33.82" laneDensity="33.82" occupancy="16.39" waitingTime="59064.39" timeLoss="66371.69" speed="2.61" speedRelative="0.19" departed="0" arrived="0" entered="1002" left="1195" laneChangedFrom="331" laneChangedTo="534"/>
        </edge>
        <edge id="-582263960#2.366">
            <lane id="-582263960#2.366_0" sampledSeconds="68558.97" traveltime="98.02" overlapTraveltime="98.95" density="70.72" laneDensity="70.72" occupancy="34.83" waitingTime="57218.00" timeLoss="64751.93" speed="0.72" speedRelative="0.05" departed="0" arrived="0" entered="674" left="736" laneChangedFrom="0" laneChangedTo="73" teleported="4"/>
            <lane id="-582263960#2.366_1" sampledSeconds="40015.86" traveltime="33.70" overlapTraveltime="34.32" density="41.28" laneDensity="41.28" occupancy="19.86" waitingTime="29973.29" timeLoss="33915.08" speed="2.08" speedRelative="0.15" departed="0" arrived="0" entered="1195" left="1114" laneChangedFrom="73" laneChangedTo="0"/>
        </edge>
        <edge id="-601718666#2">
            <lane id="-601718666#2_0" sampledSeconds="151893.31" traveltime="435.47" overlapTraveltime="436.68" density="133.33" laneDensity="133.33" occupancy="66.84" waitingTime="138198.00" timeLoss="149826.17" speed="0.19" speedRelative="0.01" departed="0" arrived="0" entered="425" left="362" laneChangedFrom="16" laneChangedTo="33" teleported="4"/>
            <lane id="-601718666#2_1" sampledSeconds="116695.63" traveltime="452.64" overlapTraveltime="455.05" density="104.45" laneDensity="104.45" occupancy="51.57" waitingTime="106182.00" timeLoss="115177.86" speed="0.18" speedRelative="0.01" departed="0" arrived="0" entered="270" left="249" laneChangedFrom="29" laneChangedTo="16" teleported="4"/>
        </edge>
        <edge id="-651999512#0">