<?xml version="1.0" encoding="UTF-8"?>

<!-- generated on 2025-12-03 15:42:17 by Eclipse SUMO GUI Version 1.24.0
<sumoConfiguration xmlns:xsi="http://www.w3.org/2001/XMLSchema-instance" xsi:noNamespaceSchemaLocation="http://sumo.dlr.de/xsd/sumoConfiguration.xsd">

    <input>
        <net-file value="C:\Users\laebli\OneDrive - ETH Zurich\Microscopic\SUMO\251128_SUMO_V1_evening\Bellevue_V1.net.xml"/>
        <route-files value="C:\Users\laebli\OneDrive - ETH Zurich\Microscopic\SUMO\251128_SUMO_V1_evening\demand_evening.xml"/>
        <additional-files value="C:\Users\laebli\OneDrive - ETH Zurich\Microscopic\SUMO\251128_SUMO_V1_evening\detectors.add.xml"/>
    </input>

    <output>
        <lanedata-output value="C:\Users\laebli\OneDrive - ETH Zurich\Microscopic\SUMO\251128_SUMO_V1_evening\Output_LaneData_V1_evening.xml"/>
    </output>

</sumoConfiguration>
-->

<meandata xmlns:xsi="http://www.w3.org/2001/XMLSchema-instance" xsi:noNamespaceSchemaLocation="http://sumo.dlr.de/xsd/meandata_file.xsd">
    <interval begin="0.00" end="16903.00" id="DEFAULT_LANEDATA">
        <edge id="-10594647#1">
            <lane id="-10594647#1_0" sampledSeconds="9688.53" traveltime="21.94" overlapTraveltime="22.80" density="18.85" laneDensity="18.85" occupancy="9.14" waitingTime="6846.00" timeLoss="8542.50" speed="1.55" speedRelative="0.11" departed="0" arrived="0" entered="425" left="425" laneChangedFrom="0" laneChangedTo="0"/>
        </edge>
        <edge id="-10750844#2">
            <lane id="-10750844#2_0" sampledSeconds="2904.08" traveltime="4.82" overlapTraveltime="5.26" density="5.97" laneDensity="5.97" occupancy="2.74" waitingTime="1234.00" timeLoss="1547.59" speed="6.42" speedRelative="0.46" departed="0" arrived="0" entered="552" left="552" laneChangedFrom="0" laneChangedTo="0"/>
        </edge>
        <edge id="-1163569502#1">
            <lane id="-1163569502#1_0" sampledSeconds="2024.51" traveltime="6.61" overlapTraveltime="7.29" density="2.49" laneDensity="2.49" occupancy="1.12" waitingTime="0.00" timeLoss="240.53" speed="7.28" speedRelative="0.87" departed="0" arrived="0" entered="278" left="278" laneChangedFrom="0" laneChangedTo="0"/>
        </edge>
        <edge id="-11667106#10">
            <lane id="-11667106#10_0" sampledSeconds="18252.52" traveltime="12.61" overlapTraveltime="13.37" density="25.63" laneDensity="25.63" occupancy="11.96" waitingTime="8085.00" timeLoss="10451.39" speed="3.52" speedRelative="0.42" departed="0" arrived="0" entered="1365" left="1365" laneChangedFrom="0" laneChangedTo="0"/>
        </edge>
        <edge id="-11667106#2">
            <lane id="-11667106#2_0" sampledSeconds="58186.26" traveltime="72.75" overlapTraveltime="73.56" density="36.68" laneDensity="36.68" occupancy="18.15" waitingTime="41457.00" timeLoss="48904.73" speed="1.34" speedRelative="0.16" departed="0" arrived="0" entered="791" left="791" laneChangedFrom="0" laneChangedTo="0"/>
        </edge>
        <edge id="-11667106#5">
            <lane id="-11667106#5_0" sampledSeconds="27316.88" traveltime="19.71" overlapTraveltime="20.49" density="29.98" laneDensity="29.98" occupancy="14.44" waitingTime="14139.00" timeLoss="17717.58" speed="2.87" speedRelative="0.35" departed="0" arrived="0" entered="1333" left="1333" laneChangedFrom="0" laneChangedTo="0"/>
        </edge>
        <edge id="-11667106#8">
            <lane id="-11667106#8_0" sampledSeconds="19574.89" traveltime="13.58" overlapTraveltime="14.34" density="27.75" laneDensity="27.75" occupancy="13.11" waitingTime="9331.00" timeLoss="11838.20" speed="3.26" speedRelative="0.39" departed="0" arrived="0" entered="1365" left="1365" laneChangedFrom="0" laneChangedTo="0"/>
        </edge>
        <edge id="-1168931395#1">
            <lane id="-1168931395#1_0" sampledSeconds="7067.17" traveltime="12.00" overlapTraveltime="16.91" density="17.92" laneDensity="17.92" occupancy="6.92" waitingTime="4994.00" timeLoss="6196.97" speed="1.68" speedRelative="0.12" departed="0" arrived="0" entered="400" left="443" laneChangedFrom="1" laneChangedTo="44"/>
            <lane id="-1168931395#1_1" sampledSeconds="9596.49" traveltime="9.58" overlapTraveltime="13.44" density="24.34" laneDensity="24.34" occupancy="9.45" waitingTime="6467.00" timeLoss="8119.93" speed="2.11" speedRelative="0.15" departed="0" arrived="0" entered="735" left="691" laneChangedFrom="44" laneChangedTo="1"/>
        </edge>
        <edge id="-1168931399#2">
            <lane id="-1168931399#2_0" sampledSeconds="6815.30" traveltime="28.43" overlapTraveltime="29.61" density="23.96" laneDensity="23.96" occupancy="10.25" waitingTime="5488.00" timeLoss="6255.49" speed="0.74" speedRelative="0.09" departed="0" arrived="0" entered="232" left="229" laneChangedFrom="0" laneChangedTo="0"/>
        </edge>
        <edge id="-1168931401#1">
            <lane id="-1168931401#1_0" sampledSeconds="1450.56" traveltime="2.22" overlapTraveltime="2.63" density="3.80" laneDensity="3.80" occupancy="1.54" waitingTime="0.00" timeLoss="342.54" speed="10.50" speedRelative="0.76" departed="0" arrived="0" entered="553" left="553" laneChangedFrom="0" laneChangedTo="0"/>
        </edge>
        <edge id="-125860019#2">
            <lane id="-125860019#2_0" sampledSeconds="2652.94" traveltime="19.81" overlapTraveltime="21.22" density="10.78" laneDensity="10.78" occupancy="5.10" waitingTime="1824.00" timeLoss="2250.42" speed="0.92" speedRelative="0.17" departed="0" arrived="0" entered="125" left="125" laneChangedFrom="0" laneChangedTo="0"/>
        </edge>
        <edge id="-125860019#4">
            <lane id="-125860019#4_0" sampledSeconds="593.61" traveltime="3.68" overlapTraveltime="4.75" density="2.27" laneDensity="2.27" occupancy="0.84" waitingTime="17.00" timeLoss="120.38" speed="4.30" speedRelative="0.77" departed="0" arrived="0" entered="125" left="125" laneChangedFrom="0" laneChangedTo="0"/>
        </edge>
        <edge id="-14389891#0">
            <lane id="-14389891#0_0" sampledSeconds="3959.88" traveltime="13.81" overlapTraveltime="17.07" density="3.13" laneDensity="3.13" occupancy="1.42" waitingTime="1257.00" timeLoss="1709.78" speed="4.68" speedRelative="0.56" departed="0" arrived="0" entered="232" left="232" laneChangedFrom="0" laneChangedTo="0"/>
        </edge>
        <edge id="-14389891#3">
            <lane id="-14389891#3_0" sampledSeconds="2725.06" traveltime="8.57" overlapTraveltime="9.80" density="2.88" laneDensity="2.88" occupancy="1.30" waitingTime="340.00" timeLoss="661.40" speed="6.21" speedRelative="0.75" departed="0" arrived="0" entered="278" left="278" laneChangedFrom="0" laneChangedTo="0"/>
        </edge>
        <edge id="-14389891#4">
            <lane id="-14389891#4_0" sampledSeconds="489.48" traveltime="1.08" overlapTraveltime="1.76" density="3.62" laneDensity="3.62" occupancy="1.11" waitingTime="0.00" timeLoss="51.71" speed="7.39" speedRelative="0.89" departed="0" arrived="0" entered="278" left="278" laneChangedFrom="0" laneChangedTo="0"/>
        </edge>
        <edge id="-14389891#5">
            <lane id="-14389891#5_0" sampledSeconds="572.89" traveltime="1.38" overlapTraveltime="2.06" density="3.31" laneDensity="3.31" occupancy="1.11" waitingTime="0.00" timeLoss="59.75" speed="7.40" speedRelative="0.89" departed="0" arrived="0" entered="278" left="278" laneChangedFrom="0" laneChangedTo="0"/>
        </edge>
        <edge id="-15677258#0">
            <lane id="-15677258#0_0" sampledSeconds="2116.47" traveltime="3.32" overlapTraveltime="4.52" density="14.10" laneDensity="14.10" occupancy="4.76" waitingTime="409.00" timeLoss="1166.51" speed="3.07" speedRelative="0.37" departed="0" arrived="0" entered="468" left="468" laneChangedFrom="0" laneChangedTo="0"/>
        </edge>
        <edge id="-15677258#1">
            <lane id="-15677258#1_0" sampledSeconds="1441.36" traveltime="2.14" overlapTraveltime="3.08" density="10.75" laneDensity="10.75" occupancy="3.26" waitingTime="38.00" timeLoss="707.42" speed="4.20" speedRelative="0.50" departed="0" arrived="0" entered="468" left="468" laneChangedFrom="0" laneChangedTo="0"/>
        </edge>
        <edge id="-15677510#0">
            <lane id="-15677510#0_0" sampledSeconds="31092.15" traveltime="68.21" overlapTraveltime="69.59" density="87.26" laneDensity="87.26" occupancy="42.84" waitingTime="25850.00" timeLoss="30059.67" speed="0.37" speedRelative="0.03" departed="0" arrived="0" entered="449" left="449" laneChangedFrom="0" laneChangedTo="0" teleported="1"/>
        </edge>
        <edge id="-15677510#1">
            <lane id="-15677510#1_0" sampledSeconds="43541.05" traveltime="95.93" overlapTraveltime="97.23" density="81.67" laneDensity="81.67" occupancy="34.90" waitingTime="35806.00" timeLoss="42365.75" speed="0.38" speedRelative="0.03" departed="0" arrived="0" entered="449" left="449" laneChangedFrom="0" laneChangedTo="0" teleported="1"/>
        </edge>
        <edge id="-15677510#2">
            <lane id="-15677510#2_0" sampledSeconds="694.28" traveltime="0.13" overlapTraveltime="1.55" density="64.18" laneDensity="64.18" occupancy="3.43" waitingTime="0.00" timeLoss="512.81" speed="3.64" speedRelative="0.26" departed="0" arrived="0" entered="449" left="449" laneChangedFrom="0" laneChangedTo="0"/>
        </edge>
        <edge id="-15677510#3">
            <lane id="-15677510#3_0" sampledSeconds="6114.52" traveltime="13.02" overlapTraveltime="13.71" density="3.81" laneDensity="3.81" occupancy="1.81" waitingTime="1675.00" timeLoss="2746.58" speed="7.29" speedRelative="0.53" departed="0" arrived="0" entered="446" left="446" laneChangedFrom="0" laneChangedTo="0"/>
        </edge>
        <edge id="-172213041#1">
            <lane id="-172213041#1_0" sampledSeconds="4985.52" traveltime="13.49" overlapTraveltime="13.90" density="2.34" laneDensity="2.34" occupancy="1.13" waitingTime="936.00" timeLoss="1568.93" speed="9.44" speedRelative="0.68" departed="0" arrived="0" entered="302" left="393" laneChangedFrom="15" laneChangedTo="106"/>
            <lane id="-172213041#1_1" sampledSeconds="52001.90" traveltime="23.32" overlapTraveltime="24.69" density="24.38" laneDensity="24.38" occupancy="11.68" waitingTime="20739.00" timeLoss="31870.42" speed="5.31" speedRelative="0.38" departed="0" arrived="0" entered="2163" left="2072" laneChangedFrom="106" laneChangedTo="15"/>
        </edge>
        <edge id="-172213042">
            <lane id="-172213042_0" sampledSeconds="3726.47" traveltime="10.04" overlapTraveltime="12.03" density="4.66" laneDensity="4.66" occupancy="2.16" waitingTime="2102.00" timeLoss="2546.74" speed="4.35" speedRelative="0.31" departed="0" arrived="0" entered="344" left="305" laneChangedFrom="39" laneChangedTo="0"/>
            <lane id="-172213042_1" sampledSeconds="6968.92" traveltime="4.48" overlapTraveltime="5.21" density="8.72" laneDensity="8.72" occupancy="3.94" waitingTime="659.00" timeLoss="1882.40" speed="10.03" speedRelative="0.72" departed="0" arrived="0" entered="1358" left="1323" laneChangedFrom="74" laneChangedTo="39"/>
            <lane id="-172213042_2" sampledSeconds="5174.00" traveltime="6.74" overlapTraveltime="8.10" density="6.47" laneDensity="6.47" occupancy="2.99" waitingTime="1983.00" timeLoss="2753.48" speed="6.45" speedRelative="0.46" departed="0" arrived="0" entered="583" left="657" laneChangedFrom="0" laneChangedTo="74"/>
        </edge>
        <edge id="-172222117#1">
            <lane id="-172222117#1_0" sampledSeconds="9559.64" traveltime="13.25" overlapTraveltime="16.08" density="13.69" laneDensity="13.69" occupancy="5.48" waitingTime="6439.00" timeLoss="7554.17" speed="2.88" speedRelative="0.21" departed="0" arrived="0" entered="611" left="592" laneChangedFrom="19" laneChangedTo="0"/>
            <lane id="-172222117#1_1" sampledSeconds="16561.54" traveltime="4.29" overlapTraveltime="4.81" density="23.72" laneDensity="23.72" occupancy="10.63" waitingTime="1826.34" timeLoss="4955.79" speed="9.63" speedRelative="0.69" departed="0" arrived="0" entered="3429" left="3448" laneChangedFrom="0" laneChangedTo="19"/>
        </edge>
        <edge id="-172222117#1.57">
            <lane id="-172222117#1.57_0" sampledSeconds="12445.19" traveltime="24.04" overlapTraveltime="24.73" density="20.90" laneDensity="20.90" occupancy="10.08" waitingTime="9956.00" timeLoss="10967.01" speed="1.63" speedRelative="0.12" departed="0" arrived="0" entered="592" left="481" laneChangedFrom="123" laneChangedTo="12"/>
            <lane id="-172222117#1.57_1" sampledSeconds="10826.08" traveltime="125.47" overlapTraveltime="122.40" density="18.19" laneDensity="18.19" occupancy="8.98" waitingTime="9723.00" timeLoss="10571.57" speed="0.33" speedRelative="0.02" departed="0" arrived="0" entered="0" left="111" laneChangedFrom="12" laneChangedTo="123"/>
        </edge>
        <edge id="-188708009">
            <lane id="-188708009_0" sampledSeconds="55862.78" traveltime="101.50" overlapTraveltime="101.22" density="38.40" laneDensity="38.40" occupancy="19.04" waitingTime="44035.00" timeLoss="52142.61" speed="0.90" speedRelative="0.06" departed="0" arrived="0" entered="476" left="680" laneChangedFrom="151" laneChangedTo="357"/>
            <lane id="-188708009_1" sampledSeconds="62291.86" traveltime="87.42" overlapTraveltime="89.10" density="42.82" laneDensity="42.82" occupancy="21.14" waitingTime="49197.00" timeLoss="57666.70" speed="1.02" speedRelative="0.07" departed="0" arrived="0" entered="778" left="567" laneChangedFrom="357" laneChangedTo="151" teleported="2"/>
        </edge>
        <edge id="-188708010">
            <lane id="-188708010_0" sampledSeconds="18065.33" traveltime="37.32" overlapTraveltime="37.90" density="31.71" laneDensity="31.71" occupancy="14.47" waitingTime="14800.00" timeLoss="16707.65" speed="1.02" speedRelative="0.07" departed="0" arrived="0" entered="456" left="488" laneChangedFrom="6" laneChangedTo="38"/>
            <lane id="-188708010_1" sampledSeconds="20284.62" traveltime="30.26" overlapTraveltime="30.90" density="35.61" laneDensity="35.61" occupancy="16.16" waitingTime="16734.00" timeLoss="18434.29" speed="1.25" speedRelative="0.09" departed="0" arrived="0" entered="678" left="645" laneChangedFrom="38" laneChangedTo="6" teleported="2"/>
        </edge>
        <edge id="-27361348#1">
            <lane id="-27361348#1_0" sampledSeconds="29553.69" traveltime="138.54" overlapTraveltime="149.87" density="14.50" laneDensity="14.50" occupancy="7.19" waitingTime="24378.00" timeLoss="27719.05" speed="0.84" speedRelative="0.06" departed="0" arrived="0" entered="179" left="180" laneChangedFrom="0" laneChangedTo="37"/>
            <lane id="-27361348#1_1" sampledSeconds="234541.91" traveltime="922.67" overlapTraveltime="987.87" density="115.11" laneDensity="115.11" occupancy="57.05" waitingTime="204859.00" timeLoss="232364.89" speed="0.13" speedRelative="0.01" departed="0" arrived="0" entered="277" left="221" laneChangedFrom="81" laneChangedTo="39"/>
            <lane id="-27361348#1_2" sampledSeconds="228011.75" traveltime="662.43" overlapTraveltime="706.52" density="111.91" laneDensity="111.91" occupancy="55.57" waitingTime="193446.00" timeLoss="225066.96" speed="0.18" speedRelative="0.01" departed="0" arrived="0" entered="325" left="317" laneChangedFrom="38" laneChangedTo="44"/>
        </edge>
        <edge id="-28674458#0">
            <lane id="-28674458#0_0" sampledSeconds="4324.07" traveltime="25.29" overlapTraveltime="49.46" density="107.04" laneDensity="107.04" occupancy="24.57" waitingTime="3909.00" timeLoss="4206.47" speed="0.15" speedRelative="0.01" departed="0" arrived="0" entered="88" left="88" laneChangedFrom="0" laneChangedTo="0"/>
        </edge>
        <edge id="-28674458#1">
            <lane id="-28674458#1_0" sampledSeconds="10100.17" traveltime="65.98" overlapTraveltime="113.71" density="10.96" laneDensity="10.96" occupancy="3.98" waitingTime="8678.00" timeLoss="9663.16" speed="0.52" speedRelative="0.04" departed="0" arrived="0" entered="89" left="88" laneChangedFrom="0" laneChangedTo="0"/>
        </edge>
        <edge id="-28674458#2">
            <lane id="-28674458#2_0" sampledSeconds="121.91" traveltime="0.91" overlapTraveltime="1.37" density="0.83" laneDensity="0.83" occupancy="0.26" waitingTime="0.00" timeLoss="34.13" speed="10.01" speedRelative="0.72" departed="0" arrived="0" entered="89" left="89" laneChangedFrom="0" laneChangedTo="0"/>
        </edge>
        <edge id="-295864510#2">
            <lane id="-295864510#2_0" sampledSeconds="161.44" traveltime="6.95" overlapTraveltime="8.07" density="0.35" laneDensity="0.35" occupancy="0.16" waitingTime="45.00" timeLoss="88.16" speed="4.03" speedRelative="0.48" departed="0" arrived="0" entered="20" left="20" laneChangedFrom="0" laneChangedTo="0"/>
        </edge>
        <edge id="-295864510#3">
            <lane id="-295864510#3_0" sampledSeconds="103.94" traveltime="4.55" overlapTraveltime="5.20" density="0.18" laneDensity="0.18" occupancy="0.08" waitingTime="0.00" timeLoss="9.45" speed="7.68" speedRelative="0.92" departed="0" arrived="0" entered="20" left="20" laneChangedFrom="0" laneChangedTo="0"/>
        </edge>
        <edge id="-295864510#4">
            <lane id="-295864510#4_0" sampledSeconds="16.34" traveltime="0.04" overlapTraveltime="0.82" density="4.83" laneDensity="4.83" occupancy="0.09" waitingTime="0.00" timeLoss="4.03" speed="6.36" speedRelative="0.76" departed="0" arrived="0" entered="20" left="20" laneChangedFrom="0" laneChangedTo="0"/>
        </edge>
        <edge id="-313458176#4">
            <lane id="-313458176#4_0" sampledSeconds="1691.28" traveltime="5.14" overlapTraveltime="5.54" density="2.65" laneDensity="2.65" occupancy="1.12" waitingTime="575.00" timeLoss="735.27" speed="7.73" speedRelative="0.56" departed="0" arrived="0" entered="323" left="298" laneChangedFrom="25" laneChangedTo="0"/>
            <lane id="-313458176#4_1" sampledSeconds="22817.99" traveltime="13.42" overlapTraveltime="15.53" density="35.74" laneDensity="35.74" occupancy="15.89" waitingTime="6126.00" timeLoss="18232.11" speed="2.75" speedRelative="0.20" departed="0" arrived="0" entered="1452" left="1477" laneChangedFrom="0" laneChangedTo="25"/>
        </edge>
        <edge id="-313458176#4.40">
            <lane id="-313458176#4.40_0" sampledSeconds="40965.25" traveltime="167.88" overlapTraveltime="170.42" density="14.23" laneDensity="14.23" occupancy="7.09" waitingTime="34130.00" timeLoss="37870.47" speed="1.03" speedRelative="0.07" departed="0" arrived="0" entered="298" left="160" laneChangedFrom="141" laneChangedTo="3" teleported="4"/>
            <lane id="-313458176#4.40_1" sampledSeconds="27770.88" traveltime="500.91" overlapTraveltime="483.47" density="9.65" laneDensity="9.65" occupancy="4.81" waitingTime="24153.00" timeLoss="27048.32" speed="0.36" speedRelative="0.03" departed="0" arrived="0" entered="0" left="138" laneChangedFrom="3" laneChangedTo="141"/>
        </edge>
        <edge id="-35162767#0">
            <lane id="-35162767#0_0" sampledSeconds="3529.52" traveltime="2.80" overlapTraveltime="3.21" density="6.10" laneDensity="6.10" occupancy="2.66" waitingTime="10.00" timeLoss="386.77" speed="12.21" speedRelative="0.88" departed="0" arrived="0" entered="1099" left="1099" laneChangedFrom="0" laneChangedTo="0"/>
        </edge>
        <edge id="-35162767#1">
            <lane id="-35162767#1_0" sampledSeconds="7279.31" traveltime="6.21" overlapTraveltime="6.62" density="5.62" laneDensity="5.62" occupancy="2.64" waitingTime="0.00" timeLoss="735.71" speed="12.33" speedRelative="0.89" departed="0" arrived="0" entered="1099" left="1099" laneChangedFrom="0" laneChangedTo="0"/>
        </edge>
        <edge id="-35162769#0">
            <lane id="-35162769#0_0" sampledSeconds="6444.99" traveltime="5.38" overlapTraveltime="5.86" density="6.75" laneDensity="6.75" occupancy="3.13" waitingTime="309.00" timeLoss="1516.48" speed="10.48" speedRelative="0.75" departed="0" arrived="0" entered="1100" left="1099" laneChangedFrom="0" laneChangedTo="0"/>
        </edge>
        <edge id="-35162769#1">
            <lane id="-35162769#1_0" sampledSeconds="2534.57" traveltime="1.90" overlapTraveltime="2.30" density="6.33" laneDensity="6.33" occupancy="2.61" waitingTime="0.00" timeLoss="230.62" speed="12.46" speedRelative="0.90" departed="0" arrived="0" entered="1101" left="1100" laneChangedFrom="0" laneChangedTo="0"/>
        </edge>
        <edge id="-35162769#2">
            <lane id="-35162769#2_0" sampledSeconds="2837.67" traveltime="2.18" overlapTraveltime="2.58" density="6.16" laneDensity="6.16" occupancy="2.60" waitingTime="0.00" timeLoss="247.07" speed="12.52" speedRelative="0.90" departed="0" arrived="0" entered="1102" left="1101" laneChangedFrom="0" laneChangedTo="0"/>
        </edge>
        <edge id="-4398888#0">
            <lane id="-4398888#0_0" sampledSeconds="90791.04" traveltime="120.50" overlapTraveltime="135.37" density="72.64" laneDensity="72.64" occupancy="32.21" waitingTime="73349.00" timeLoss="86900.03" speed="0.58" speedRelative="0.04" departed="0" arrived="0" entered="652" left="703" laneChangedFrom="109" laneChangedTo="168"/>
            <lane id="-4398888#0_1" sampledSeconds="97607.14" traveltime="103.76" overlapTraveltime="116.99" density="78.10" laneDensity="78.10" occupancy="34.70" waitingTime="77219.00" timeLoss="92841.86" speed="0.67" speedRelative="0.05" departed="0" arrived="0" entered="859" left="805" laneChangedFrom="168" laneChangedTo="122"/>
            <lane id="-4398888#0_2" sampledSeconds="697.96" traveltime="56.89" overlapTraveltime="60.74" density="0.56" laneDensity="0.56" occupancy="0.28" waitingTime="567.00" timeLoss="631.57" speed="1.30" speedRelative="0.09" departed="0" arrived="0" entered="13" left="0" laneChangedFrom="13" laneChangedTo="0"/>
        </edge>
        <edge id="-4398888#0.74">
            <lane id="-4398888#0.74_0" sampledSeconds="34481.23" traveltime="46.23" overlapTraveltime="47.29" density="101.14" laneDensity="101.14" occupancy="45.32" waitingTime="28572.00" timeLoss="33107.00" speed="0.53" speedRelative="0.04" departed="0" arrived="0" entered="704" left="745" laneChangedFrom="15" laneChangedTo="59"/>
            <lane id="-4398888#0.74_1" sampledSeconds="36405.45" traveltime="45.37" overlapTraveltime="46.97" density="106.78" laneDensity="106.78" occupancy="47.79" waitingTime="29850.00" timeLoss="34962.92" speed="0.54" speedRelative="0.04" departed="0" arrived="0" entered="804" left="757" laneChangedFrom="59" laneChangedTo="15"/>
        </edge>
        <edge id="-4398888#2">
            <lane id="-4398888#2_0" sampledSeconds="15227.78" traveltime="14.79" overlapTraveltime="23.51" density="53.21" laneDensity="53.21" occupancy="20.40" waitingTime="11769.00" timeLoss="14180.29" speed="0.93" speedRelative="0.07" departed="0" arrived="0" entered="630" left="652" laneChangedFrom="13" laneChangedTo="48"/>
            <lane id="-4398888#2_1" sampledSeconds="18168.65" traveltime="13.65" overlapTraveltime="20.86" density="63.49" laneDensity="63.49" occupancy="24.68" waitingTime="13457.43" timeLoss="16789.19" speed="1.05" speedRelative="0.08" departed="0" arrived="0" entered="894" left="859" laneChangedFrom="48" laneChangedTo="13"/>
        </edge>
        <edge id="-46656282#2">
            <lane id="-46656282#2_0" sampledSeconds="11002.09" traveltime="12.02" overlapTraveltime="12.49" density="16.34" laneDensity="16.34" occupancy="7.81" waitingTime="4475.00" timeLoss="7760.43" speed="3.59" speedRelative="0.26" departed="0" arrived="0" entered="0" left="1249" laneChangedFrom="0" laneChangedTo="1249"/>
            <lane id="-46656282#2_1" sampledSeconds="3421.68" traveltime="8.26" overlapTraveltime="9.30" density="5.08" laneDensity="5.08" occupancy="2.36" waitingTime="1221.00" timeLoss="2240.20" speed="4.82" speedRelative="0.35" departed="0" arrived="0" entered="1249" left="0" laneChangedFrom="1249" laneChangedTo="0"/>
        </edge>
        <edge id="-4727535">
            <lane id="-4727535_0" sampledSeconds="258.69" traveltime="0.03" overlapTraveltime="0.85" density="127.54" laneDensity="127.54" occupancy="1.49" waitingTime="0.00" timeLoss="110.11" speed="6.04" speedRelative="0.43" departed="0" arrived="0" entered="305" left="305" laneChangedFrom="0" laneChangedTo="0"/>
            <lane id="-4727535_1" sampledSeconds="873.17" traveltime="0.02" overlapTraveltime="0.66" density="133.33" laneDensity="133.33" occupancy="5.04" waitingTime="0.00" timeLoss="288.27" speed="7.76" speedRelative="0.56" departed="0" arrived="0" entered="1323" left="1323" laneChangedFrom="0" laneChangedTo="0"/>
            <lane id="-4727535_2" sampledSeconds="542.92" traveltime="0.03" overlapTraveltime="0.83" density="133.33" laneDensity="133.33" occupancy="3.13" waitingTime="0.00" timeLoss="238.21" speed="6.20" speedRelative="0.45" departed="0" arrived="0" entered="657" left="657" laneChangedFrom="0" laneChangedTo="0"/>
        </edge>
        <edge id="-550432837#1">
            <lane id="-550432837#1_0" sampledSeconds="1996.85" traveltime="3.64" overlapTraveltime="4.03" density="3.48" laneDensity="3.48" occupancy="1.49" waitingTime="0.00" timeLoss="592.33" speed="9.65" speedRelative="0.69" departed="0" arrived="0" entered="495" left="495" laneChangedFrom="0" laneChangedTo="0"/>
        </edge>
        <edge id="-550432840#0">
            <lane id="-550432840#0_0" sampledSeconds="2114.51" traveltime="1.52" overlapTraveltime="1.92" density="6.64" laneDensity="6.64" occupancy="2.62" waitingTime="0.00" timeLoss="202.89" speed="12.40" speedRelative="0.89" departed="0" arrived="0" entered="1099" left="1099" laneChangedFrom="0" laneChangedTo="0"/>
        </edge>
        <edge id="-550432840#2">
            <lane id="-550432840#2_0" sampledSeconds="2477.52" traveltime="1.85" overlapTraveltime="2.25" density="6.45" laneDensity="6.45" occupancy="2.64" waitingTime="0.00" timeLoss="254.11" speed="12.31" speedRelative="0.89" departed="0" arrived="0" entered="1099" left="1099" laneChangedFrom="0" laneChangedTo="0"/>
        </edge>
        <edge id="-550432841#1">
            <lane id="-550432841#1_0" sampledSeconds="5602.52" traveltime="10.27" overlapTraveltime="11.30" density="9.32" laneDensity="9.32" occupancy="4.37" waitingTime="2412.00" timeLoss="3860.36" speed="3.59" speedRelative="0.26" departed="0" arrived="0" entered="496" left="495" laneChangedFrom="0" laneChangedTo="0"/>
            <lane id="-550432841#1_1" sampledSeconds="6715.48" traveltime="9.97" overlapTraveltime="11.14" density="11.18" laneDensity="11.18" occupancy="5.23" waitingTime="3164.00" timeLoss="4932.18" speed="3.64" speedRelative="0.26" departed="0" arrived="0" entered="603" left="602" laneChangedFrom="0" laneChangedTo="0"/>
        </edge>
        <edge id="-565560611#2">
            <lane id="-565560611#2_0" sampledSeconds="10234.94" traveltime="17.75" overlapTraveltime="18.51" density="12.45" laneDensity="12.45" occupancy="6.04" waitingTime="6274.00" timeLoss="8077.08" speed="2.90" speedRelative="0.21" departed="0" arrived="0" entered="553" left="552" laneChangedFrom="0" laneChangedTo="0"/>
        </edge>
        <edge id="-565560611#3">
            <lane id="-565560611#3_0" sampledSeconds="1166.36" traveltime="1.71" overlapTraveltime="2.11" density="3.16" laneDensity="3.16" occupancy="1.29" waitingTime="0.00" timeLoss="87.40" speed="12.71" speedRelative="0.92" departed="0" arrived="0" entered="553" left="553" laneChangedFrom="0" laneChangedTo="0"/>
        </edge>
        <edge id="-582263960#2">
            <lane id="-582263960#2_0" sampledSeconds="10680.47" traveltime="14.62" overlapTraveltime="15.01" density="3.80" laneDensity="3.80" occupancy="1.80" waitingTime="124.00" timeLoss="1786.03" speed="11.41" speedRelative="0.82" departed="0" arrived="0" entered="1119" left="769" laneChangedFrom="712" laneChangedTo="362"/>
            <lane id="-582263960#2_1" sampledSeconds="63698.38" traveltime="41.76" overlapTraveltime="42.59" density="22.65" laneDensity="22.65" occupancy="11.11" waitingTime="24137.21" timeLoss="44985.89" speed="4.02" speedRelative="0.29" departed="0" arrived="0" entered="1088" left="1438" laneChangedFrom="362" laneChangedTo="712"/>
        </edge>
        <edge id="-582263960#2.366">
            <lane id="-582263960#2.366_0" sampledSeconds="6356.83" traveltime="7.53" overlapTraveltime="8.29" density="5.66" laneDensity="5.66" occupancy="2.64" waitingTime="930.00" timeLoss="2119.29" speed="8.62" speedRelative="0.62" departed="0" arrived="0" entered="769" left="761" laneChangedFrom="9" laneChangedTo="1"/>
            <lane id="-582263960#2.366_1" sampledSeconds="37502.71" traveltime="25.41" overlapTraveltime="26.04" density="33.37" laneDensity="33.37" occupancy="16.25" waitingTime="19632.00" timeLoss="29991.83" speed="2.75" speedRelative="0.20" departed="0" arrived="0" entered="1438" left="1446" laneChangedFrom="1" laneChangedTo="9"/>
        </edge>
        <edge id="-601718666#2">
            <lane id="-601718666#2_0" sampledSeconds="172260.68" traveltime="430.96" overlapTraveltime="431.38" density="133.03" laneDensity="133.03" occupancy="65.81" waitingTime="156419.01" timeLoss="169871.88" speed="0.19" speedRelative="0.01" departed="0" arrived="0" entered="430" left="403" laneChangedFrom="26" laneChangedTo="64" teleported="9"/>
            <lane id="-601718666#2_1" sampledSeconds="129778.64" traveltime="366.45" overlapTraveltime="369.09" density="100.22" laneDensity="100.22" occupancy="49.89" waitingTime="116264.00" timeLoss="127696.15" speed="0.22" speedRelative="0.02" departed="0" arrived="0" entered="371" left="331" laneChangedFrom="56" laneChangedTo="26" teleported="2"/>
        </edge>
        <edge id="-651999512#0">